   * xtb version 6.6.1 (8d0f1dd) compiled by 'stahn@M-Bot' on 2023-08-01
          program call               : xtb folded.xyz --gfn 2 --ohess -P 4

   ID    Z sym.   atoms
    1    6 C      1-4
    2    1 H      5-14

          :  Hamiltonian                  GFN2-xTB          :
 * total energy  :   -13.6633444 Eh     change       -0.5748291E-11 Eh
 * total energy  :   -13.6640708 Eh     change       -0.7263546E-03 Eh
 * total energy  :   -13.6641554 Eh     change       -0.8465315E-04 Eh
 * total energy  :   -13.6641643 Eh     change       -0.8844275E-05 Eh
 * total energy  :   -13.6641716 Eh     change       -0.7366026E-05 Eh
 * total energy  :   -13.6641756 Eh     change       -0.3995684E-05 Eh
   *** GEOMETRY OPTIMIZATION CONVERGED AFTER 6 ITERATIONS ***

 final structure:
================
14
 xtb: 6.6.1 (8d0f1dd)
C           -1.57041063646498        0.03413551714487        0.56773002613742
C           -0.67270344266753       -0.36393090018553       -0.59895931458021
C            0.67268087774749        0.36318225907565       -0.59939263410273
C            1.57033192943932       -0.03342843378389        0.56782854969714
H           -2.53722392836980       -0.45725675528680        0.48397194522078
H           -1.12707058557073       -0.25281995122677        1.51747506598561
H           -1.73206533798214        1.11005246717338        0.57309547354108
H           -0.49848851231484       -1.44198829210013       -0.57075019635376
H           -1.19096933827011       -0.13780761558913       -1.53401772475546
H            0.49846257139903        1.44127470387752       -0.57254784070425
H            1.19098853027722        0.13588385674374       -1.53414245408331
H            1.73241092605140       -1.10927343655870        0.57423023134593
H            2.53697094455714        0.45827469170267        0.48379044577929
H            1.12668500216853        0.25422988901313        1.51722042687246
           -------------------------------------------------
          |                Final Singlepoint                |
           -------------------------------------------------

          :  Hamiltonian                  GFN2-xTB          :
         :: gradient norm              0.000825069940 Eh/a0 ::
         :: HOMO-LUMO gap             14.247643215098 eV    ::
         :: SCC energy               -13.874981922797 Eh    ::
         :: -> dispersion             -0.006301223046 Eh    ::
         :: repulsion energy           0.210799180823 Eh    ::

    * Orbital Energies and Occupations

         #    Occupation            Energy/Eh            Energy/eV
      -------------------------------------------------------------
         1        2.0000           -0.6177311             -16.8093
         2        2.0000           -0.5960145             -16.2184
         3        2.0000           -0.5731467             -15.5961
         4        2.0000           -0.5474555             -14.8970
         5        2.0000           -0.5064192             -13.7804
         6        2.0000           -0.5058873             -13.7659
         7        2.0000           -0.4849722             -13.1968
         8        2.0000           -0.4663389             -12.6897
         9        2.0000           -0.4618500             -12.5676
        10        2.0000           -0.4481460             -12.1947
        11        2.0000           -0.4258874             -11.5890
        12        2.0000           -0.4234707             -11.5232
        13        2.0000           -0.4221705             -11.4878 (HOMO)
        14                          0.1014208               2.7598 (LUMO)
        15                          0.1108360               3.0160
        16                          0.1372065               3.7336
        17                          0.1488836               4.0513
        18                          0.1498606               4.0779
        19                          0.1575719               4.2877
        20                          0.2026912               5.5155
        21                          0.2065686               5.6210
        22                          0.2348387               6.3903
        23                          0.2486975               6.7674
        24                          0.2784525               7.5771
       ...                                ...                  ...
        26                          0.3000956               8.1660
      -------------------------------------------------------------
                  HL-Gap            0.5235912 Eh           14.2476 eV

     #   Z          covCN         q      C6AA      α(0)
     1   6 C        3.751    -0.101    22.494     6.764
     2   6 C        3.800    -0.053    21.519     6.605
     3   6 C        3.800    -0.053    21.519     6.605
     4   6 C        3.751    -0.101    22.494     6.764
     5   1 H        0.925     0.030     2.585     2.514
     6   1 H        0.925     0.035     2.511     2.478
     7   1 H        0.925     0.033     2.550     2.497
     8   1 H        0.924     0.030     2.592     2.518
     9   1 H        0.924     0.026     2.643     2.542
    10   1 H        0.924     0.030     2.592     2.518
    11   1 H        0.924     0.026     2.643     2.542
    12   1 H        0.925     0.033     2.551     2.497
    13   1 H        0.925     0.030     2.585     2.514
    14   1 H        0.925     0.035     2.511     2.478

Wiberg/Mayer (AO) data.
largest (>0.10) Wiberg bond orders for each atom

     #   Z sym  total        # sym  WBO       # sym  WBO       # sym  WBO
 ---------------------------------------------------------------------------
     1   6 C    3.997 --     2 C    1.020     7 H    0.988     5 H    0.988
                             6 H    0.986
     2   6 C    3.998 --     1 C    1.020     3 C    1.008     9 H    0.979
                             8 H    0.978
     3   6 C    3.998 --     4 C    1.020     2 C    1.008    11 H    0.979
                            10 H    0.978
     4   6 C    3.997 --     3 C    1.020    12 H    0.988    13 H    0.988
                            14 H    0.986
     5   1 H    0.999 --     1 C    0.988
     6   1 H    0.999 --     1 C    0.986
     7   1 H    0.999 --     1 C    0.988
     8   1 H    0.999 --     2 C    0.978
     9   1 H    0.999 --     2 C    0.979
    10   1 H    0.999 --     3 C    0.978
    11   1 H    0.999 --     3 C    0.979
    12   1 H    0.999 --     4 C    0.988
    13   1 H    0.999 --     4 C    0.988
    14   1 H    0.999 --     4 C    0.986
 ---------------------------------------------------------------------------

molecular dipole:
                 x           y           z       tot (Debye)
 q only:       -0.000       0.000       0.015
   full:       -0.000       0.000       0.012       0.030

 projected vibrational frequencies (cm⁻¹)
eigval :       -0.00    -0.00    -0.00    -0.00     0.00     0.00
eigval :       96.22   200.60   258.09   322.40   432.10   787.82
eigval :      831.35   884.65   981.45  1017.33  1020.65  1138.36
eigval :     1145.36  1188.26  1256.27  1276.91  1350.23  1356.61
eigval :     1414.62  1415.06  1490.91  1493.80  1503.43  1504.90
eigval :     1508.21  1517.01  2962.88  2965.15  2981.18  2981.30
eigval :     3029.38  3031.86  3034.07  3034.21  3044.11  3050.27

   temp. (K)  partition function   enthalpy   heat capacity  entropy
                                   cal/mol     cal/K/mol   cal/K/mol   J/K/mol
 298.15  VIB   9.78                 1827.942     13.337     10.621
         ROT  0.267E+05              888.752      2.981     23.236
         INT  0.261E+06             2716.695     16.318     33.857
         TR   0.429E+27             1481.254      4.968     38.083
         TOT                        4197.9486    21.2863    71.9402   300.9976

       T/K    H(0)-H(T)+PV         H(T)/Eh          T*S/Eh         G(T)/Eh
   ------------------------------------------------------------------------
    298.15    0.668986E-02    0.137700E+00    0.341811E-01    0.103519E+00
   ------------------------------------------------------------------------

         :::::::::::::::::::::::::::::::::::::::::::::::::::::
         ::                  THERMODYNAMIC                  ::
         :::::::::::::::::::::::::::::::::::::::::::::::::::::
         :: total free energy         -13.560656238209 Eh   ::
         ::.................................................::
         :: total energy              -13.664175631728 Eh   ::
         :: zero point energy           0.131010625174 Eh   ::
         :: G(RRHO) w/o ZPVE           -0.027491231655 Eh   ::
         :: G(RRHO) contrib.            0.103519393519 Eh   ::
         :::::::::::::::::::::::::::::::::::::::::::::::::::::

           -------------------------------------------------
          | TOTAL ENERGY              -13.664175631728 Eh   |
          | TOTAL ENTHALPY            -13.526475149587 Eh   |
          | TOTAL FREE ENERGY         -13.560656238209 Eh   |
          | GRADIENT NORM               0.000825066940 Eh/α |
          | HOMO-LUMO GAP              14.247642813272 eV   |
           -------------------------------------------------

 * finished run on 2024/04/23 at 12:09:57.761
