   * xtb version 6.6.1 (8d0f1dd) compiled by 'stahn@M-Bot' on 2023-08-01
          program call               : xtb unfolded.xyz --gfn 2 --ohess -P 4

   ID    Z sym.   atoms
    1    6 C      1-6
    2    1 H      7-20

          :  Hamiltonian                  GFN2-xTB          :
 * total energy  :   -19.9926533 Eh     change       -0.4910561E-10 Eh
 * total energy  :   -19.9936992 Eh     change       -0.1045910E-02 Eh
 * total energy  :   -19.9938321 Eh     change       -0.1328789E-03 Eh
 * total energy  :   -19.9938367 Eh     change       -0.4622807E-05 Eh
   *** GEOMETRY OPTIMIZATION CONVERGED AFTER 4 ITERATIONS ***

 final structure:
================
20
 xtb: 6.6.1 (8d0f1dd)
C            3.18281744742988        0.22251318705586       -0.00088495714157
C            1.86838603567191       -0.54860851673670        0.00054946050213
C            0.65971411078757        0.38440596121368       -0.00125800613015
C           -0.65961177640145       -0.38371988499261        0.00168517332198
C           -1.86869465053718        0.54875153349526        0.00218394110167
C           -3.18255132739321       -0.22335773772290       -0.00222974958754
H            3.25371141572029        0.85738675293464        0.87967507945633
H            3.25362666030252        0.85436571695868       -0.88361793411124
H            4.02817659320153       -0.46173966124514        0.00025885603088
H            1.82615820911134       -1.19402473542661       -0.87971937971679
H            1.82612447424656       -1.19061676200118        0.88330725167677
H            0.70170270086748        1.02619101428366       -0.88452591967485
H            0.70287295048845        1.03108069067140        0.87839147602677
H           -0.70080483919984       -1.02671916124234        0.88411495363635
H           -0.70325992949710       -1.02923186643471       -0.87879609707003
H           -1.82830098163300        1.19004423945187        0.88554302475387
H           -1.82544197442827        1.19491109331798       -0.87748775927333
H           -3.25178157270517       -0.86361312379237        0.87456197562796
H           -4.02850366074799        0.46013084839190        0.00407695118418
H           -3.25392788528431       -0.84994058818036       -0.88866634061340
           -------------------------------------------------
          |                Final Singlepoint                |
           -------------------------------------------------

          :  Hamiltonian                  GFN2-xTB          :
         :: gradient norm              0.000611515575 Eh/a0 ::
         :: HOMO-LUMO gap             13.017876284954 eV    ::
         :: SCC energy               -20.298296242878 Eh    ::
         :: -> dispersion             -0.010396849288 Eh    ::
         :: repulsion energy           0.304479679536 Eh    ::

    * Orbital Energies and Occupations

         #    Occupation            Energy/Eh            Energy/eV
      -------------------------------------------------------------
         1        2.0000           -0.6211411             -16.9021
       ...           ...                  ...                  ...
         7        2.0000           -0.5197400             -14.1428
         8        2.0000           -0.5002977             -13.6138
         9        2.0000           -0.4980213             -13.5519
        10        2.0000           -0.4895514             -13.3214
        11        2.0000           -0.4710816             -12.8188
        12        2.0000           -0.4653487             -12.6628
        13        2.0000           -0.4625216             -12.5859
        14        2.0000           -0.4421936             -12.0327
        15        2.0000           -0.4386652             -11.9367
        16        2.0000           -0.4289594             -11.6726
        17        2.0000           -0.4236161             -11.5272
        18        2.0000           -0.4199475             -11.4274
        19        2.0000           -0.4170698             -11.3490 (HOMO)
        20                          0.0613283               1.6688 (LUMO)
        21                          0.1138082               3.0969
        22                          0.1168128               3.1786
        23                          0.1307122               3.5569
        24                          0.1500898               4.0842
        25                          0.1568768               4.2688
        26                          0.1571475               4.2762
        27                          0.1662738               4.5245
        28                          0.1826323               4.9697
        29                          0.1839910               5.0067
        30                          0.1952417               5.3128
       ...                                ...                  ...
        38                          0.3200788               8.7098
      -------------------------------------------------------------
                  HL-Gap            0.4783981 Eh           13.0179 eV

     #   Z          covCN         q      C6AA      α(0)
     1   6 C        3.752    -0.102    22.509     6.766
     2   6 C        3.801    -0.053    21.522     6.605
     3   6 C        3.803    -0.059    21.635     6.622
     4   6 C        3.803    -0.059    21.635     6.622
     5   6 C        3.801    -0.053    21.522     6.605
     6   6 C        3.752    -0.102    22.509     6.766
     7   1 H        0.925     0.033     2.543     2.494
     8   1 H        0.925     0.033     2.543     2.494
     9   1 H        0.925     0.032     2.551     2.498
    10   1 H        0.924     0.028     2.609     2.526
    11   1 H        0.924     0.028     2.609     2.526
    12   1 H        0.924     0.029     2.598     2.521
    13   1 H        0.924     0.029     2.598     2.521
    14   1 H        0.924     0.029     2.599     2.521
    15   1 H        0.924     0.029     2.598     2.521
    16   1 H        0.924     0.028     2.609     2.526
    17   1 H        0.924     0.028     2.609     2.526
    18   1 H        0.925     0.033     2.543     2.494
    19   1 H        0.925     0.032     2.551     2.498
    20   1 H        0.925     0.033     2.543     2.494

Wiberg/Mayer (AO) data.
largest (>0.10) Wiberg bond orders for each atom

     #   Z sym  total        # sym  WBO       # sym  WBO       # sym  WBO
 ---------------------------------------------------------------------------
     1   6 C    3.997 --     2 C    1.019     8 H    0.988     7 H    0.988
                             9 H    0.988
     2   6 C    3.998 --     1 C    1.019     3 C    1.008    10 H    0.979
                            11 H    0.979
     3   6 C    3.997 --     2 C    1.008     4 C    1.007    12 H    0.978
                            13 H    0.978
     4   6 C    3.997 --     5 C    1.008     3 C    1.007    14 H    0.978
                            15 H    0.978
     5   6 C    3.998 --     6 C    1.019     4 C    1.008    16 H    0.979
                            17 H    0.979
     6   6 C    3.997 --     5 C    1.019    20 H    0.988    18 H    0.988
                            19 H    0.988
     7   1 H    0.999 --     1 C    0.988
     8   1 H    0.999 --     1 C    0.988
     9   1 H    0.999 --     1 C    0.988
    10   1 H    0.999 --     2 C    0.979
    11   1 H    0.999 --     2 C    0.979
    12   1 H    0.999 --     3 C    0.978
    13   1 H    0.999 --     3 C    0.978
    14   1 H    0.999 --     4 C    0.978
    15   1 H    0.999 --     4 C    0.978
    16   1 H    0.999 --     5 C    0.979
    17   1 H    0.999 --     5 C    0.979
    18   1 H    0.999 --     6 C    0.988
    19   1 H    0.999 --     6 C    0.988
    20   1 H    0.999 --     6 C    0.988
 ---------------------------------------------------------------------------

molecular dipole:
                 x           y           z       tot (Debye)
 q only:        0.000      -0.000      -0.000
   full:        0.000      -0.000      -0.000       0.000

 projected vibrational frequencies (cm⁻¹)
eigval :       -0.00    -0.00    -0.00    -0.00    -0.00     0.00
eigval :       67.87    92.60   135.04   135.35   227.38   237.03
eigval :      301.38   370.78   465.00   769.06   785.96   842.46
eigval :      926.11   940.05   942.02  1003.99  1074.49  1079.91
eigval :     1108.54  1118.84  1150.13  1200.17  1229.88  1260.46
eigval :     1268.68  1283.72  1292.96  1319.56  1364.09  1379.42
eigval :     1415.98  1416.12  1495.82  1496.44  1500.13  1502.60
eigval :     1504.81  1504.86  1507.81  1508.07  2955.33  2960.39
eigval :     2968.78  2975.34  2975.53  2978.23  2981.62  2988.70
eigval :     3030.23  3030.73  3032.41  3032.99  3037.74  3038.52

   temp. (K)  partition function   enthalpy   heat capacity  entropy
                                   cal/mol     cal/K/mol   cal/K/mol   J/K/mol
 298.15  VIB   195.                 3524.507     22.809     22.018
         ROT  0.100E+06              888.752      2.981     25.867
         INT  0.196E+08             4413.259     25.790     47.885
         TR   0.774E+27             1481.254      4.968     39.257
         TOT                        5894.5134    30.7578    87.1419   364.6017

       T/K    H(0)-H(T)+PV         H(T)/Eh          T*S/Eh         G(T)/Eh
   ------------------------------------------------------------------------
    298.15    0.939351E-02    0.196686E+00    0.414039E-01    0.155282E+00
   ------------------------------------------------------------------------

         :::::::::::::::::::::::::::::::::::::::::::::::::::::
         ::                  THERMODYNAMIC                  ::
         :::::::::::::::::::::::::::::::::::::::::::::::::::::
         :: total free energy         -19.838554234151 Eh   ::
         ::.................................................::
         :: total energy              -19.993836688329 Eh   ::
         :: zero point energy           0.187292878502 Eh   ::
         :: G(RRHO) w/o ZPVE           -0.032010424324 Eh   ::
         :: G(RRHO) contrib.            0.155282454178 Eh   ::
         :::::::::::::::::::::::::::::::::::::::::::::::::::::

           -------------------------------------------------
          | TOTAL ENERGY              -19.993836688329 Eh   |
          | TOTAL ENTHALPY            -19.797150304774 Eh   |
          | TOTAL FREE ENERGY         -19.838554234151 Eh   |
          | GRADIENT NORM               0.000611517672 Eh/α |
          | HOMO-LUMO GAP              13.017876217261 eV   |
           -------------------------------------------------

 * finished run on 2024/04/20 at 10:55:47.004
