   * xtb version 6.6.1 (8d0f1dd) compiled by 'stahn@M-Bot' on 2023-08-01
          program call               : xtb folded.xyz --gfn 2 --ohess -P 4

   ID    Z sym.   atoms
    1    6 C      1-10
    2    1 H      11-32

          :  Hamiltonian                  GFN2-xTB          :
 * total energy  :   -32.6474685 Eh     change       -0.9549694E-11 Eh
 * total energy  :   -32.6493170 Eh     change       -0.1848499E-02 Eh
 * total energy  :   -32.6495989 Eh     change       -0.2818826E-03 Eh
 * total energy  :   -32.6496159 Eh     change       -0.1695636E-04 Eh
 * total energy  :   -32.6496314 Eh     change       -0.1555740E-04 Eh
 * total energy  :   -32.6496381 Eh     change       -0.6647045E-05 Eh
 * total energy  :   -32.6496520 Eh     change       -0.1392461E-04 Eh
 * total energy  :   -32.6496314 Eh     change        0.2057206E-04 Eh
 * total energy  :   -32.6496560 Eh     change       -0.2452373E-04 Eh
 * total energy  :   -32.6496579 Eh     change       -0.1905969E-05 Eh
   *** GEOMETRY OPTIMIZATION CONVERGED AFTER 10 ITERATIONS ***

 final structure:
================
32
 xtb: 6.6.1 (8d0f1dd)
C            4.90943806247487        1.32939758526278       -0.07589128484065
C            4.14887811244830        0.05185782317291        0.25731525780826
C            2.69589507396616        0.12051152255644       -0.20640071937286
C            1.92650832035653       -1.15443525147114        0.13192492870986
C            0.49878825364093       -1.16193025156916       -0.41509195708339
C           -0.42048021144645       -0.15698598470849        0.27551653758874
C           -1.84662060312167       -0.22759312145676       -0.26531953432161
C           -2.76906213592327        0.76653712386139        0.43682609290435
C           -4.17098346740921        0.82706191329677       -0.16998198904395
C           -4.96745519056076       -0.45707668708573        0.02888847432694
H            5.94087961974687        1.26267567032837        0.26256888125644
H            4.91125700211786        1.50252168040833       -1.15005726544624
H            4.44475038768691        2.18664232089944        0.40684148121526
H            4.64126268548968       -0.79872698987738       -0.22012085819087
H            4.17478774040736       -0.11537811644120        1.33672359117125
H            2.21565184001727        0.97876883801823        0.26668750043979
H            2.67093614123982        0.27896229300744       -1.28741093765565
H            2.46582311799710       -2.00839569017031       -0.28641872170234
H            1.89830689252419       -1.28349186850748        1.21662743784851
H            0.07954444737666       -2.16342219676377       -0.28749366859869
H            0.52367903189233       -0.95081453835914       -1.48700095153837
H           -0.03704444698815        0.85445896154219        0.13051529666903
H           -0.43094660631878       -0.35785511608752        1.34968406838098
H           -1.83505965424005       -0.01295113883831       -1.33690093853198
H           -2.22691717791348       -1.24200812245473       -0.13331899260215
H           -2.32047289747248        1.76174716820403        0.37749086953474
H           -2.84556972090004        0.50326737544545        1.49457980121949
H           -4.71492283665364        1.65421240546064        0.29300922559995
H           -4.09121163705130        1.04232566025309       -1.23816548557132
H           -4.50968801461624       -1.28661899858440       -0.50344011563548
H           -5.02004703540019       -0.71183577132163        1.08534278164342
H           -5.98169709336714       -0.33416949802034       -0.34464380618145
           -------------------------------------------------
          |                Final Singlepoint                |
           -------------------------------------------------

          :  Hamiltonian                  GFN2-xTB          :
         :: gradient norm              0.000312396880 Eh/a0 ::
         :: HOMO-LUMO gap             12.594837588874 eV    ::
         :: SCC energy               -33.140475892425 Eh    ::
         :: -> dispersion             -0.019948861830 Eh    ::
         :: repulsion energy           0.490893302077 Eh    ::

    * Orbital Energies and Occupations

         #    Occupation            Energy/Eh            Energy/eV
      -------------------------------------------------------------
         1        2.0000           -0.6225900             -16.9415
       ...           ...                  ...                  ...
        19        2.0000           -0.4663964             -12.6913
        20        2.0000           -0.4620089             -12.5719
        21        2.0000           -0.4538844             -12.3508
        22        2.0000           -0.4465527             -12.1513
        23        2.0000           -0.4432142             -12.0605
        24        2.0000           -0.4354896             -11.8503
        25        2.0000           -0.4304791             -11.7139
        26        2.0000           -0.4268348             -11.6148
        27        2.0000           -0.4224207             -11.4947
        28        2.0000           -0.4207060             -11.4480
        29        2.0000           -0.4184331             -11.3861
        30        2.0000           -0.4139764             -11.2649
        31        2.0000           -0.4096652             -11.1476 (HOMO)
        32                          0.0531865               1.4473 (LUMO)
        33                          0.0748295               2.0362
        34                          0.1021579               2.7799
        35                          0.1116302               3.0376
        36                          0.1203448               3.2747
        37                          0.1230115               3.3473
        38                          0.1279398               3.4814
        39                          0.1397256               3.8021
        40                          0.1416647               3.8549
        41                          0.1509244               4.1069
        42                          0.1550128               4.2181
       ...                                ...                  ...
        62                          0.3257259               8.8635
      -------------------------------------------------------------
                  HL-Gap            0.4628518 Eh           12.5948 eV

     #   Z          covCN         q      C6AA      α(0)
     1   6 C        3.752    -0.102    22.504     6.765
     2   6 C        3.801    -0.053    21.524     6.605
     3   6 C        3.803    -0.059    21.638     6.623
     4   6 C        3.802    -0.058    21.619     6.620
     5   6 C        3.802    -0.058    21.611     6.619
     6   6 C        3.802    -0.059    21.628     6.621
     7   6 C        3.802    -0.058    21.624     6.620
     8   6 C        3.802    -0.058    21.614     6.619
     9   6 C        3.800    -0.053    21.519     6.605
    10   6 C        3.751    -0.102    22.505     6.765
    11   1 H        0.925     0.032     2.556     2.500
    12   1 H        0.925     0.033     2.544     2.494
    13   1 H        0.925     0.033     2.546     2.495
    14   1 H        0.924     0.028     2.622     2.532
    15   1 H        0.924     0.028     2.617     2.530
    16   1 H        0.924     0.032     2.563     2.504
    17   1 H        0.924     0.030     2.586     2.515
    18   1 H        0.924     0.028     2.619     2.531
    19   1 H        0.924     0.029     2.602     2.522
    20   1 H        0.924     0.028     2.619     2.531
    21   1 H        0.924     0.029     2.596     2.520
    22   1 H        0.924     0.030     2.583     2.513
    23   1 H        0.924     0.028     2.608     2.525
    24   1 H        0.924     0.028     2.611     2.527
    25   1 H        0.924     0.031     2.570     2.507
    26   1 H        0.924     0.027     2.632     2.537
    27   1 H        0.924     0.030     2.589     2.516
    28   1 H        0.924     0.027     2.623     2.533
    29   1 H        0.924     0.029     2.601     2.522
    30   1 H        0.925     0.035     2.522     2.484
    31   1 H        0.925     0.033     2.538     2.491
    32   1 H        0.925     0.031     2.577     2.510

Wiberg/Mayer (AO) data.
largest (>0.10) Wiberg bond orders for each atom

     #   Z sym  total        # sym  WBO       # sym  WBO       # sym  WBO
 ---------------------------------------------------------------------------
     1   6 C    3.997 --     2 C    1.019    12 H    0.988    13 H    0.988
                            11 H    0.988
     2   6 C    3.998 --     1 C    1.019     3 C    1.008    15 H    0.979
                            14 H    0.979
     3   6 C    3.997 --     4 C    1.008     2 C    1.008    17 H    0.977
                            16 H    0.975
     4   6 C    3.997 --     3 C    1.008     5 C    1.006    19 H    0.977
                            18 H    0.977
     5   6 C    3.997 --     6 C    1.008     4 C    1.006    20 H    0.977
                            21 H    0.977
     6   6 C    3.997 --     5 C    1.008     7 C    1.007    23 H    0.978
                            22 H    0.975
     7   6 C    3.997 --     8 C    1.008     6 C    1.007    24 H    0.977
                            25 H    0.976
     8   6 C    3.997 --     7 C    1.008     9 C    1.007    27 H    0.978
                            26 H    0.977
     9   6 C    3.998 --    10 C    1.020     8 C    1.007    28 H    0.979
                            29 H    0.978
    10   6 C    3.997 --     9 C    1.020    31 H    0.988    32 H    0.988
                            30 H    0.986
    11   1 H    0.999 --     1 C    0.988
    12   1 H    0.999 --     1 C    0.988
    13   1 H    0.999 --     1 C    0.988
    14   1 H    0.999 --     2 C    0.979
    15   1 H    0.999 --     2 C    0.979
    16   1 H    0.999 --     3 C    0.975
    17   1 H    0.999 --     3 C    0.977
    18   1 H    0.999 --     4 C    0.977
    19   1 H    0.999 --     4 C    0.977
    20   1 H    0.999 --     5 C    0.977
    21   1 H    0.999 --     5 C    0.977
    22   1 H    0.999 --     6 C    0.975
    23   1 H    0.999 --     6 C    0.978
    24   1 H    0.999 --     7 C    0.977
    25   1 H    0.999 --     7 C    0.976
    26   1 H    0.999 --     8 C    0.977
    27   1 H    0.999 --     8 C    0.978
    28   1 H    0.999 --     9 C    0.979
    29   1 H    0.999 --     9 C    0.978
    30   1 H    0.999 --    10 C    0.986
    31   1 H    0.999 --    10 C    0.988
    32   1 H    0.999 --    10 C    0.988
 ---------------------------------------------------------------------------

molecular dipole:
                 x           y           z       tot (Debye)
 q only:       -0.009       0.003      -0.002
   full:       -0.005       0.002      -0.001       0.014

 projected vibrational frequencies (cm⁻¹)
eigval :       -0.00    -0.00    -0.00     0.00     0.00     0.00
eigval :       22.62    42.50    54.74    81.65    95.73   107.02
eigval :      118.64   152.02   201.39   222.33   237.47   260.66
eigval :      332.85   353.52   406.30   451.21   518.28   766.45
eigval :      773.31   789.81   816.55   830.21   894.82   923.24
eigval :      937.41   942.94   990.31  1005.84  1017.19  1035.91
eigval :     1081.32  1095.04  1107.28  1113.59  1127.57  1138.25
eigval :     1144.82  1177.41  1190.35  1223.65  1246.62  1256.34
eigval :     1272.58  1278.95  1283.64  1286.51  1291.27  1300.41
eigval :     1328.76  1349.56  1354.17  1370.78  1378.02  1380.52
eigval :     1415.81  1416.60  1490.34  1491.14  1493.24  1494.76
eigval :     1496.84  1498.80  1500.27  1502.46  1505.27  1507.71
eigval :     1508.28  1510.92  2953.97  2955.31  2955.53  2959.76
eigval :     2960.64  2963.00  2969.34  2970.93  2974.31  2977.24
eigval :     2978.18  2980.20  2982.17  2984.43  2989.26  2995.78
eigval :     3028.98  3030.59  3031.68  3033.80  3037.50  3046.59

   temp. (K)  partition function   enthalpy   heat capacity  entropy
                                   cal/mol     cal/K/mol   cal/K/mol   J/K/mol
 298.15  VIB  0.291E+06             6838.585     39.960     44.354
         ROT  0.142E+07              888.752      2.981     31.137
         INT  0.414E+12             7727.337     42.941     75.490
         TR   0.164E+28             1481.254      4.968     40.751
         TOT                        9208.5912    47.9088   116.2410   486.3524

       T/K    H(0)-H(T)+PV         H(T)/Eh          T*S/Eh         G(T)/Eh
   ------------------------------------------------------------------------
    298.15    0.146748E-01    0.314828E+00    0.552299E-01    0.259598E+00
   ------------------------------------------------------------------------

         :::::::::::::::::::::::::::::::::::::::::::::::::::::
         ::                  THERMODYNAMIC                  ::
         :::::::::::::::::::::::::::::::::::::::::::::::::::::
         :: total free energy         -32.390059883500 Eh   ::
         ::.................................................::
         :: total energy              -32.649657863863 Eh   ::
         :: zero point energy           0.300153015011 Eh   ::
         :: G(RRHO) w/o ZPVE           -0.040555034648 Eh   ::
         :: G(RRHO) contrib.            0.259597980363 Eh   ::
         :::::::::::::::::::::::::::::::::::::::::::::::::::::

           -------------------------------------------------
          | TOTAL ENERGY              -32.649657863863 Eh   |
          | TOTAL ENTHALPY            -32.334830024704 Eh   |
          | TOTAL FREE ENERGY         -32.390059883500 Eh   |
          | GRADIENT NORM               0.000312397706 Eh/α |
          | HOMO-LUMO GAP              12.594837619154 eV   |
           -------------------------------------------------

 * finished run on 2024/04/23 at 12:10:24.866
