   * xtb version 6.6.1 (8d0f1dd) compiled by 'stahn@M-Bot' on 2023-08-01
          program call               : xtb unfolded.xyz --gfn 2 --ohess -P 4

   ID    Z sym.   atoms
    1    6 C      1-15
    2    1 H      16-47

          :  Hamiltonian                  GFN2-xTB          :
 * total energy  :   -48.4684539 Eh     change       -0.1646328E-10 Eh
 * total energy  :   -48.4710795 Eh     change       -0.2625661E-02 Eh
 * total energy  :   -48.4715424 Eh     change       -0.4629093E-03 Eh
 * total energy  :   -48.4715897 Eh     change       -0.4727345E-04 Eh
 * total energy  :   -48.4716367 Eh     change       -0.4694753E-04 Eh
 * total energy  :   -48.4716474 Eh     change       -0.1070687E-04 Eh
 * total energy  :   -48.4716561 Eh     change       -0.8759453E-05 Eh
 * total energy  :   -48.4716589 Eh     change       -0.2797238E-05 Eh
 * total energy  :   -48.4716643 Eh     change       -0.5401130E-05 Eh
 * total energy  :   -48.4716673 Eh     change       -0.2968977E-05 Eh
   *** GEOMETRY OPTIMIZATION CONVERGED AFTER 10 ITERATIONS ***

 final structure:
================
47
 xtb: 6.6.1 (8d0f1dd)
C           -5.91858396742010        5.35574946617185        1.20790645109468
C           -4.82718867255782        4.31724234452930        1.43677989021757
C           -5.02454153825231        3.08091806338933        0.56259327723823
C           -3.92214270663067        2.04720548863167        0.77816870371800
C           -4.10513407082798        0.81959655961282       -0.11187273351567
C           -3.05856548501910       -0.26699298624456        0.13909265470453
C           -1.65348381340778        0.13815650652024       -0.30090684247228
C           -0.63796118858617       -0.97909080856101       -0.07488695903929
C            0.77038067718964       -0.55968174025599       -0.48944846475710
C            1.80277637127578       -1.64875818450920       -0.20968276174498
C            3.21127515997957       -1.21881823357447       -0.61266248680409
C            4.25177604236129       -2.29042586912129       -0.29643086616153
C            5.65691840378854       -1.85547933111076       -0.70736285212706
C            6.74375829558452       -2.84841622397380       -0.29381282074612
C            6.65648987268953       -4.17651087708465       -1.03714724544480
H           -5.75826324801071        6.22651340718232        1.83945638367179
H           -6.89624986606275        4.93854879512978        1.43927846778400
H           -5.92309828442777        5.68046797077835        0.16961635339343
H           -3.85336974148273        4.76110355777283        1.21735990562133
H           -4.82449398060524        4.01875199424819        2.48758952811716
H           -5.03616398648123        3.38136874977661       -0.48784684135506
H           -5.99445826113104        2.63101808919320        0.78754998616166
H           -2.95829966133309        2.51388106786563        0.56887428309121
H           -3.92007285750368        1.73465102722434        1.82512902832874
H           -5.09750332799164        0.39989083861354        0.07092305361105
H           -4.06454132659793        1.12360985324174       -1.16042487180392
H           -3.04625602464499       -0.51486558246997        1.20306764639607
H           -3.34967190710319       -1.16871136571740       -0.40535790798905
H           -1.67046275016868        0.40315660015453       -1.36063132396419
H           -1.33321072225922        1.01934656459839        0.25702394248699
H           -0.63497072364894       -1.25263192320041        0.98292309063310
H           -0.93537826665786       -1.86356812896154       -0.64294501679891
H            1.04959624504669        0.34624034697790        0.05392558973529
H            0.77734889466336       -0.31927029839254       -1.55510424459091
H            1.53011313985123       -2.55517470148286       -0.75513525872279
H            1.79099469030888       -1.88951660927341        0.85598914057384
H            3.23019949262144       -1.00139795124525       -1.68318215721350
H            3.47030980159813       -0.29748606863057       -0.08535268935327
H            3.98187241282057       -3.21023359794992       -0.81747450106966
H            4.23916163257942       -2.49864922007792        0.77614417435630
H            5.68993022411399       -1.71633481803089       -1.79045310687479
H            5.87256193180007       -0.88895140289625       -0.24485666042334
H            6.67507420443129       -3.02943445481622        0.78128943252379
H            7.71963455724698       -2.39810490446055       -0.49085797941779
H            6.68228581639008       -4.01201407039589       -2.11225871959344
H            7.49441019721360       -4.81573538319236       -0.76797492428116
H            5.73774231525807       -4.70195455598287       -0.79060574719391
           -------------------------------------------------
          |                Final Singlepoint                |
           -------------------------------------------------

          :  Hamiltonian                  GFN2-xTB          :
         :: gradient norm              0.000913279356 Eh/a0 ::
         :: HOMO-LUMO gap             12.107202811620 eV    ::
         :: SCC energy               -49.196361514271 Eh    ::
         :: -> dispersion             -0.031091067320 Eh    ::
         :: repulsion energy           0.724986210352 Eh    ::

    * Orbital Energies and Occupations

         #    Occupation            Energy/Eh            Energy/eV
      -------------------------------------------------------------
         1        2.0000           -0.6232262             -16.9588
       ...           ...                  ...                  ...
        34        2.0000           -0.4385075             -11.9324
        35        2.0000           -0.4355114             -11.8509
        36        2.0000           -0.4332425             -11.7891
        37        2.0000           -0.4296173             -11.6905
        38        2.0000           -0.4278201             -11.6416
        39        2.0000           -0.4237600             -11.5311
        40        2.0000           -0.4220218             -11.4838
        41        2.0000           -0.4215335             -11.4705
        42        2.0000           -0.4180370             -11.3754
        43        2.0000           -0.4176941             -11.3660
        44        2.0000           -0.4153588             -11.3025
        45        2.0000           -0.4115690             -11.1994
        46        2.0000           -0.4078864             -11.0992 (HOMO)
        47                          0.0370452               1.0081 (LUMO)
        48                          0.0600705               1.6346
        49                          0.0885694               2.4101
        50                          0.1014804               2.7614
        51                          0.1076978               2.9306
        52                          0.1112287               3.0267
        53                          0.1132066               3.0805
        54                          0.1177566               3.2043
        55                          0.1200489               3.2667
        56                          0.1289655               3.5093
        57                          0.1355122               3.6875
       ...                                ...                  ...
        92                          0.3289139               8.9502
      -------------------------------------------------------------
                  HL-Gap            0.4449315 Eh           12.1072 eV

     #   Z          covCN         q      C6AA      α(0)
     1   6 C        3.752    -0.102    22.510     6.766
     2   6 C        3.801    -0.053    21.522     6.605
     3   6 C        3.803    -0.059    21.636     6.622
     4   6 C        3.803    -0.059    21.632     6.622
     5   6 C        3.802    -0.058    21.618     6.620
     6   6 C        3.802    -0.058    21.619     6.620
     7   6 C        3.803    -0.059    21.631     6.621
     8   6 C        3.803    -0.058    21.623     6.620
     9   6 C        3.803    -0.058    21.618     6.619
    10   6 C        3.803    -0.058    21.618     6.619
    11   6 C        3.803    -0.058    21.622     6.620
    12   6 C        3.802    -0.058    21.624     6.620
    13   6 C        3.802    -0.058    21.619     6.620
    14   6 C        3.800    -0.053    21.521     6.605
    15   6 C        3.751    -0.102    22.508     6.766
    16   1 H        0.925     0.032     2.552     2.498
    17   1 H        0.925     0.033     2.543     2.494
    18   1 H        0.925     0.033     2.543     2.494
    19   1 H        0.924     0.028     2.611     2.527
    20   1 H        0.924     0.028     2.610     2.526
    21   1 H        0.924     0.029     2.596     2.520
    22   1 H        0.924     0.029     2.604     2.524
    23   1 H        0.924     0.031     2.574     2.509
    24   1 H        0.924     0.029     2.602     2.523
    25   1 H        0.924     0.028     2.609     2.526
    26   1 H        0.924     0.030     2.592     2.518
    27   1 H        0.924     0.030     2.592     2.518
    28   1 H        0.924     0.028     2.610     2.527
    29   1 H        0.924     0.029     2.597     2.520
    30   1 H        0.924     0.032     2.564     2.504
    31   1 H        0.924     0.029     2.605     2.524
    32   1 H        0.924     0.028     2.615     2.529
    33   1 H        0.924     0.029     2.603     2.523
    34   1 H        0.924     0.029     2.604     2.523
    35   1 H        0.924     0.029     2.607     2.525
    36   1 H        0.924     0.029     2.602     2.523
    37   1 H        0.924     0.028     2.610     2.526
    38   1 H        0.924     0.028     2.615     2.529
    39   1 H        0.924     0.032     2.556     2.500
    40   1 H        0.924     0.029     2.603     2.523
    41   1 H        0.924     0.030     2.586     2.515
    42   1 H        0.924     0.027     2.628     2.535
    43   1 H        0.924     0.029     2.599     2.521
    44   1 H        0.924     0.028     2.620     2.531
    45   1 H        0.925     0.034     2.537     2.491
    46   1 H        0.925     0.031     2.575     2.509
    47   1 H        0.925     0.035     2.521     2.483

Wiberg/Mayer (AO) data.
largest (>0.10) Wiberg bond orders for each atom

     #   Z sym  total        # sym  WBO       # sym  WBO       # sym  WBO
 ---------------------------------------------------------------------------
     1   6 C    3.997 --     2 C    1.019    17 H    0.988    18 H    0.988
                            16 H    0.988
     2   6 C    3.998 --     1 C    1.019     3 C    1.008    20 H    0.979
                            19 H    0.979
     3   6 C    3.997 --     2 C    1.008     4 C    1.007    22 H    0.978
                            21 H    0.978
     4   6 C    3.997 --     5 C    1.008     3 C    1.007    24 H    0.977
                            23 H    0.975
     5   6 C    3.997 --     4 C    1.008     6 C    1.006    26 H    0.977
                            25 H    0.977
     6   6 C    3.997 --     7 C    1.008     5 C    1.006    28 H    0.977
                            27 H    0.977
     7   6 C    3.997 --     6 C    1.008     8 C    1.007    29 H    0.978
                            30 H    0.975
     8   6 C    3.997 --     9 C    1.007     7 C    1.007    32 H    0.978
                            31 H    0.977
     9   6 C    3.997 --    10 C    1.007     8 C    1.007    34 H    0.978
                            33 H    0.977
    10   6 C    3.997 --     9 C    1.007    11 C    1.007    35 H    0.978
                            36 H    0.977
    11   6 C    3.997 --    10 C    1.007    12 C    1.007    37 H    0.978
                            38 H    0.977
    12   6 C    3.997 --    13 C    1.008    11 C    1.007    40 H    0.977
                            39 H    0.976
    13   6 C    3.997 --    12 C    1.008    14 C    1.007    41 H    0.977
                            42 H    0.977
    14   6 C    3.998 --    15 C    1.020    13 C    1.007    44 H    0.979
                            43 H    0.978
    15   6 C    3.997 --    14 C    1.020    45 H    0.988    46 H    0.988
                            47 H    0.986
    16   1 H    0.999 --     1 C    0.988
    17   1 H    0.999 --     1 C    0.988
    18   1 H    0.999 --     1 C    0.988
    19   1 H    0.999 --     2 C    0.979
    20   1 H    0.999 --     2 C    0.979
    21   1 H    0.999 --     3 C    0.978
    22   1 H    0.999 --     3 C    0.978
    23   1 H    0.999 --     4 C    0.975
    24   1 H    0.999 --     4 C    0.977
    25   1 H    0.999 --     5 C    0.977
    26   1 H    0.999 --     5 C    0.977
    27   1 H    0.999 --     6 C    0.977
    28   1 H    0.999 --     6 C    0.977
    29   1 H    0.999 --     7 C    0.978
    30   1 H    0.999 --     7 C    0.975
    31   1 H    0.999 --     8 C    0.977
    32   1 H    0.999 --     8 C    0.978
    33   1 H    0.999 --     9 C    0.977
    34   1 H    0.999 --     9 C    0.978
    35   1 H    0.999 --    10 C    0.978
    36   1 H    0.999 --    10 C    0.977
    37   1 H    0.999 --    11 C    0.978
    38   1 H    0.999 --    11 C    0.977
    39   1 H    0.999 --    12 C    0.976
    40   1 H    0.999 --    12 C    0.977
    41   1 H    0.999 --    13 C    0.977
    42   1 H    0.999 --    13 C    0.977
    43   1 H    0.999 --    14 C    0.978
    44   1 H    0.999 --    14 C    0.979
    45   1 H    0.999 --    15 C    0.988
    46   1 H    0.999 --    15 C    0.988
    47   1 H    0.999 --    15 C    0.986
 ---------------------------------------------------------------------------

molecular dipole:
                 x           y           z       tot (Debye)
 q only:        0.003      -0.004      -0.004
   full:       -0.000      -0.001      -0.005       0.013

 projected vibrational frequencies (cm⁻¹)
eigval :       -0.00    -0.00    -0.00     0.00     0.00     0.00
eigval :       11.63    19.46    28.91    42.23    49.41    50.18
eigval :       82.84    91.20   101.01   112.11   118.53   133.66
eigval :      142.99   146.47   160.11   195.97   223.05   233.82
eigval :      263.86   289.09   326.29   355.84   389.81   430.75
eigval :      466.40   492.88   533.39   765.11   768.06   770.99
eigval :      778.89   791.96   803.50   824.22   860.17   878.07
eigval :      927.14   930.44   940.14   958.18   976.63  1005.05
eigval :     1007.61  1023.27  1035.99  1050.60  1068.20  1079.97
eigval :     1090.17  1097.18  1106.62  1109.81  1114.56  1124.30
eigval :     1130.07  1136.04  1142.18  1173.97  1184.51  1212.03
eigval :     1221.04  1225.72  1246.46  1252.55  1258.39  1267.35
eigval :     1272.01  1272.68  1281.88  1284.89  1288.43  1293.57
eigval :     1296.15  1298.84  1306.84  1323.97  1335.68  1353.23
eigval :     1360.87  1366.80  1375.27  1377.82  1378.48  1380.69
eigval :     1415.39  1415.87  1490.47  1490.88  1491.08  1493.30
eigval :     1495.70  1496.12  1497.20  1498.19  1498.89  1499.91
eigval :     1501.63  1502.29  1504.63  1504.69  1507.73  1507.85
eigval :     1510.70  2954.47  2956.13  2956.60  2958.00  2958.45
eigval :     2958.66  2962.19  2963.39  2966.60  2968.47  2972.24
eigval :     2973.67  2974.27  2975.14  2975.77  2976.44  2978.11
eigval :     2979.55  2980.92  2981.34  2983.09  2984.51  2986.68
eigval :     2991.21  2994.34  2998.22  3030.83  3031.42  3032.83
eigval :     3034.42  3038.24  3047.03

   temp. (K)  partition function   enthalpy   heat capacity  entropy
                                   cal/mol     cal/K/mol   cal/K/mol   J/K/mol
 298.15  VIB  0.980E+10            11165.761     61.535     74.197
         ROT  0.716E+07              888.752      2.981     34.348
         INT  0.702E+17            12054.513     64.516    108.545
         TR   0.300E+28             1481.254      4.968     41.945
         TOT                       13535.7669    69.4837   150.4901   629.6504

       T/K    H(0)-H(T)+PV         H(T)/Eh          T*S/Eh         G(T)/Eh
   ------------------------------------------------------------------------
    298.15    0.215706E-01    0.462448E+00    0.715027E-01    0.390945E+00
   ------------------------------------------------------------------------

         :::::::::::::::::::::::::::::::::::::::::::::::::::::
         ::                  THERMODYNAMIC                  ::
         :::::::::::::::::::::::::::::::::::::::::::::::::::::
         :: total free energy         -48.080721860592 Eh   ::
         ::.................................................::
         :: total energy              -48.471667294718 Eh   ::
         :: zero point energy           0.440877503783 Eh   ::
         :: G(RRHO) w/o ZPVE           -0.049932069656 Eh   ::
         :: G(RRHO) contrib.            0.390945434126 Eh   ::
         :::::::::::::::::::::::::::::::::::::::::::::::::::::

           -------------------------------------------------
          | TOTAL ENERGY              -48.471667294718 Eh   |
          | TOTAL ENTHALPY            -48.009219173295 Eh   |
          | TOTAL FREE ENERGY         -48.080721860592 Eh   |
          | GRADIENT NORM               0.000913276792 Eh/α |
          | HOMO-LUMO GAP              12.107202801175 eV   |
           -------------------------------------------------

 * finished run on 2024/04/23 at 12:10:46.089
