   * xtb version 6.6.1 (8d0f1dd) compiled by 'stahn@M-Bot' on 2023-08-01
          program call               : xtb unfolded.xyz --gfn 2 --ohess -P 4

   ID    Z sym.   atoms
    1    6 C      1-5
    2    1 H      6-17

          :  Hamiltonian                  GFN2-xTB          :
 * total energy  :   -16.8284772 Eh     change       -0.5101697E-11 Eh
 * total energy  :   -16.8293540 Eh     change       -0.8768345E-03 Eh
 * total energy  :   -16.8294517 Eh     change       -0.9770453E-04 Eh
 * total energy  :   -16.8294553 Eh     change       -0.3565652E-05 Eh
   *** GEOMETRY OPTIMIZATION CONVERGED AFTER 4 ITERATIONS ***

 final structure:
================
17
 xtb: 6.6.1 (8d0f1dd)
C           -2.52814977397691        0.33330867594488       -0.00097231794412
C           -1.26666052810268       -0.52076029925848       -0.00103454057237
C            0.00001180425370        0.33138877176399        0.00266894878213
C            1.26664382795770       -0.52082241494028        0.00080231909027
C            2.52816706389139        0.33319728692652       -0.00143452705325
H           -2.55554948611616        0.97409430427745       -0.87983484611919
H           -2.56124816397147        0.96589244680967        0.88361215010871
H           -3.41614054961722       -0.29479328419268       -0.00677545170691
H           -1.26468681789419       -1.16420594534665       -0.88413931575412
H           -1.26733226996534       -1.16841604676852        0.87898086313598
H           -0.00056612428670        0.97413388029690        0.88643636012593
H            0.00061699476039        0.97962434350543       -0.87709489318885
H            1.26459392213660       -1.16645478368027       -0.88070288601419
H            1.26734858895895       -1.16629780722824        0.88241804775304
H            3.41613900921816       -0.29494539335690        0.00164658408466
H            2.55772725361609        0.97325995806763        0.87787981403954
H            2.55913024913767        0.96650130717956       -0.88557830876727
           -------------------------------------------------
          |                Final Singlepoint                |
           -------------------------------------------------

          :  Hamiltonian                  GFN2-xTB          :
         :: gradient norm              0.000412403843 Eh/a0 ::
         :: HOMO-LUMO gap             13.342126753632 eV    ::
         :: SCC energy               -17.087072981039 Eh    ::
         :: -> dispersion             -0.008205238844 Eh    ::
         :: repulsion energy           0.257615255438 Eh    ::

    * Orbital Energies and Occupations

         #    Occupation            Energy/Eh            Energy/eV
      -------------------------------------------------------------
         1        2.0000           -0.6200264             -16.8718
       ...           ...                  ...                  ...
         4        2.0000           -0.5568761             -15.1534
         5        2.0000           -0.5528221             -15.0431
         6        2.0000           -0.5174792             -14.0813
         7        2.0000           -0.4988464             -13.5743
         8        2.0000           -0.4919078             -13.3855
         9        2.0000           -0.4816587             -13.1066
        10        2.0000           -0.4690064             -12.7623
        11        2.0000           -0.4566402             -12.4258
        12        2.0000           -0.4477105             -12.1828
        13        2.0000           -0.4291681             -11.6783
        14        2.0000           -0.4289509             -11.6723
        15        2.0000           -0.4239559             -11.5364
        16        2.0000           -0.4177769             -11.3683 (HOMO)
        17                          0.0725372               1.9738 (LUMO)
        18                          0.1190138               3.2385
        19                          0.1197533               3.2587
        20                          0.1397724               3.8034
        21                          0.1586267               4.3165
        22                          0.1734530               4.7199
        23                          0.1739761               4.7341
        24                          0.1811791               4.9301
        25                          0.1885381               5.1304
        26                          0.1974738               5.3735
        27                          0.2345868               6.3834
       ...                                ...                  ...
        32                          0.3166105               8.6154
      -------------------------------------------------------------
                  HL-Gap            0.4903141 Eh           13.3421 eV

     #   Z          covCN         q      C6AA      α(0)
     1   6 C        3.752    -0.102    22.504     6.765
     2   6 C        3.801    -0.053    21.524     6.605
     3   6 C        3.803    -0.060    21.645     6.624
     4   6 C        3.801    -0.053    21.524     6.605
     5   6 C        3.752    -0.102    22.504     6.765
     6   1 H        0.925     0.033     2.543     2.494
     7   1 H        0.925     0.033     2.543     2.494
     8   1 H        0.925     0.032     2.554     2.499
     9   1 H        0.924     0.028     2.617     2.530
    10   1 H        0.924     0.028     2.617     2.530
    11   1 H        0.924     0.030     2.583     2.513
    12   1 H        0.924     0.030     2.582     2.513
    13   1 H        0.924     0.028     2.617     2.530
    14   1 H        0.924     0.028     2.617     2.530
    15   1 H        0.925     0.032     2.554     2.499
    16   1 H        0.925     0.033     2.543     2.494
    17   1 H        0.925     0.033     2.543     2.494

Wiberg/Mayer (AO) data.
largest (>0.10) Wiberg bond orders for each atom

     #   Z sym  total        # sym  WBO       # sym  WBO       # sym  WBO
 ---------------------------------------------------------------------------
     1   6 C    3.997 --     2 C    1.019     7 H    0.988     6 H    0.988
                             8 H    0.988
     2   6 C    3.998 --     1 C    1.019     3 C    1.008    10 H    0.979
                             9 H    0.979
     3   6 C    3.997 --     4 C    1.008     2 C    1.008    11 H    0.978
                            12 H    0.978
     4   6 C    3.998 --     5 C    1.019     3 C    1.008    14 H    0.979
                            13 H    0.979
     5   6 C    3.997 --     4 C    1.019    17 H    0.988    16 H    0.988
                            15 H    0.988
     6   1 H    0.999 --     1 C    0.988
     7   1 H    0.999 --     1 C    0.988
     8   1 H    0.999 --     1 C    0.988
     9   1 H    0.999 --     2 C    0.979
    10   1 H    0.999 --     2 C    0.979
    11   1 H    0.999 --     3 C    0.978
    12   1 H    0.999 --     3 C    0.978
    13   1 H    0.999 --     4 C    0.979
    14   1 H    0.999 --     4 C    0.979
    15   1 H    0.999 --     5 C    0.988
    16   1 H    0.999 --     5 C    0.988
    17   1 H    0.999 --     5 C    0.988
 ---------------------------------------------------------------------------

molecular dipole:
                 x           y           z       tot (Debye)
 q only:        0.000       0.011      -0.000
   full:        0.000       0.010      -0.000       0.024

 projected vibrational frequencies (cm⁻¹)
eigval :       -0.00    -0.00    -0.00     0.00     0.00     0.00
eigval :      100.55   102.19   182.95   231.44   235.85   399.66
eigval :      401.09   771.69   805.76   893.54   915.72   975.58
eigval :      990.43  1066.51  1103.91  1118.02  1154.40  1201.34
eigval :     1240.14  1278.19  1284.60  1285.58  1345.60  1378.84
eigval :     1415.79  1417.50  1496.59  1497.99  1502.44  1505.21
eigval :     1505.23  1507.78  1508.38  2954.86  2962.19  2974.25
eigval :     2974.49  2975.75  2985.11  3028.69  3029.69  3030.55
eigval :     3032.27  3036.61  3037.64

   temp. (K)  partition function   enthalpy   heat capacity  entropy
                                   cal/mol     cal/K/mol   cal/K/mol   J/K/mol
 298.15  VIB   38.8                 2677.558     18.186     16.184
         ROT  0.548E+05              888.752      2.981     24.665
         INT  0.212E+07             3566.311     21.167     40.849
         TR   0.593E+27             1481.254      4.968     38.727
         TOT                        5047.5646    26.1351    79.5767   332.9490

       T/K    H(0)-H(T)+PV         H(T)/Eh          T*S/Eh         G(T)/Eh
   ------------------------------------------------------------------------
    298.15    0.804381E-02    0.167157E+00    0.378095E-01    0.129348E+00
   ------------------------------------------------------------------------

         :::::::::::::::::::::::::::::::::::::::::::::::::::::
         ::                  THERMODYNAMIC                  ::
         :::::::::::::::::::::::::::::::::::::::::::::::::::::
         :: total free energy         -16.700107768828 Eh   ::
         ::.................................................::
         :: total energy              -16.829455283056 Eh   ::
         :: zero point energy           0.159113180586 Eh   ::
         :: G(RRHO) w/o ZPVE           -0.029765666358 Eh   ::
         :: G(RRHO) contrib.            0.129347514228 Eh   ::
         :::::::::::::::::::::::::::::::::::::::::::::::::::::

           -------------------------------------------------
          | TOTAL ENERGY              -16.829455283056 Eh   |
          | TOTAL ENTHALPY            -16.662298296257 Eh   |
          | TOTAL FREE ENERGY         -16.700107768828 Eh   |
          | GRADIENT NORM               0.000412401246 Eh/α |
          | HOMO-LUMO GAP              13.342126839138 eV   |
           -------------------------------------------------

 * finished run on 2024/04/23 at 12:09:58.571
