   * xtb version 6.6.1 (8d0f1dd) compiled by 'stahn@M-Bot' on 2023-08-01
          program call               : xtb unfolded.xyz --gfn 2 --ohess -P 4

   ID    Z sym.   atoms
    1    6 C      1-8
    2    1 H      9-26

          :  Hamiltonian                  GFN2-xTB          :
 * total energy  :   -26.3210232 Eh     change       -0.1051852E-09 Eh
 * total energy  :   -26.3223947 Eh     change       -0.1371564E-02 Eh
 * total energy  :   -26.3226046 Eh     change       -0.2098371E-03 Eh
 * total energy  :   -26.3226174 Eh     change       -0.1285201E-04 Eh
 * total energy  :   -26.3226206 Eh     change       -0.3164682E-05 Eh
   *** GEOMETRY OPTIMIZATION CONVERGED AFTER 5 ITERATIONS ***

 final structure:
================
26
 xtb: 6.6.1 (8d0f1dd)
C            4.44051172565658       -0.26930823840715       -0.03821638774163
C            3.14957973385110        0.53951367134164        0.00656154345569
C            1.91412816295825       -0.35769007740921        0.00601199254197
C            0.61778580476467        0.44864693261024        0.02824246387538
C           -0.61781436601358       -0.44836897812852        0.02721335908847
C           -1.91423784329236        0.35784694664481        0.00532914630793
C           -3.14953036117178       -0.53958008840137        0.00770699344712
C           -4.44066634094068        0.26886309823005       -0.03796856278319
H            4.50799739210021       -0.92842277684759        0.82465942658244
H            5.30601736132936        0.38927539935264       -0.03583250607073
H            4.47643275425807       -0.88019214648980       -0.93773031135538
H            3.14227246934575        1.16205629432160        0.90419252535727
H            3.10996892918927        1.20653075577880       -0.85773375928561
H            1.92938426426054       -0.99027437959512       -0.88479945358550
H            1.94581879666049       -1.01586760251368        0.87758988354183
H            0.60236033449064        1.08396317692638        0.91706694003230
H            0.58732009296725        1.10465764783568       -0.84512705215483
H           -0.58676989498491       -1.10316369202305       -0.84704344205148
H           -0.60290675577284       -1.08492809801030        0.91516182875783
H           -1.94533910273857        1.01659465966477        0.87649987326533
H           -1.93027518396474        0.98983404583230       -0.88588799640874
H           -3.11013992179477       -1.20811829416905       -0.85541815766479
H           -3.14170430452892       -1.16053992761924        0.90643490446797
H           -4.50489222843758        0.93399355283445        0.82053384101557
H           -5.30610984522763       -0.38972605396036       -0.02765320708736
H           -4.48008567296383        0.87343617220109       -0.94158488554787
           -------------------------------------------------
          |                Final Singlepoint                |
           -------------------------------------------------

          :  Hamiltonian                  GFN2-xTB          :
         :: gradient norm              0.000451349585 Eh/a0 ::
         :: HOMO-LUMO gap             12.581018941271 eV    ::
         :: SCC energy               -26.720255861344 Eh    ::
         :: -> dispersion             -0.014823780098 Eh    ::
         :: repulsion energy           0.397730399990 Eh    ::

    * Orbital Energies and Occupations

         #    Occupation            Energy/Eh            Energy/eV
      -------------------------------------------------------------
         1        2.0000           -0.6222931             -16.9335
       ...           ...                  ...                  ...
        13        2.0000           -0.4894011             -13.3173
        14        2.0000           -0.4825836             -13.1318
        15        2.0000           -0.4672944             -12.7157
        16        2.0000           -0.4664866             -12.6937
        17        2.0000           -0.4488364             -12.2135
        18        2.0000           -0.4465843             -12.1522
        19        2.0000           -0.4437107             -12.0740
        20        2.0000           -0.4324277             -11.7670
        21        2.0000           -0.4272620             -11.6264
        22        2.0000           -0.4270906             -11.6217
        23        2.0000           -0.4187060             -11.3936
        24        2.0000           -0.4165978             -11.3362
        25        2.0000           -0.4150980             -11.2954 (HOMO)
        26                          0.0472459               1.2856 (LUMO)
        27                          0.1071075               2.9145
        28                          0.1140989               3.1048
        29                          0.1149178               3.1271
        30                          0.1238425               3.3699
        31                          0.1359240               3.6987
        32                          0.1392982               3.7905
        33                          0.1491963               4.0598
        34                          0.1625384               4.4229
        35                          0.1722540               4.6873
        36                          0.1757468               4.7823
       ...                                ...                  ...
        50                          0.3234059               8.8003
      -------------------------------------------------------------
                  HL-Gap            0.4623439 Eh           12.5810 eV

     #   Z          covCN         q      C6AA      α(0)
     1   6 C        3.752    -0.102    22.510     6.766
     2   6 C        3.801    -0.053    21.523     6.605
     3   6 C        3.803    -0.059    21.633     6.622
     4   6 C        3.803    -0.058    21.620     6.620
     5   6 C        3.803    -0.058    21.620     6.620
     6   6 C        3.803    -0.059    21.633     6.622
     7   6 C        3.801    -0.053    21.523     6.605
     8   6 C        3.752    -0.102    22.510     6.766
     9   1 H        0.925     0.033     2.542     2.493
    10   1 H        0.925     0.033     2.550     2.497
    11   1 H        0.925     0.033     2.542     2.493
    12   1 H        0.924     0.028     2.609     2.526
    13   1 H        0.924     0.029     2.608     2.525
    14   1 H        0.924     0.030     2.591     2.517
    15   1 H        0.924     0.030     2.593     2.518
    16   1 H        0.924     0.028     2.609     2.526
    17   1 H        0.924     0.029     2.607     2.525
    18   1 H        0.924     0.029     2.607     2.525
    19   1 H        0.924     0.028     2.609     2.526
    20   1 H        0.924     0.030     2.593     2.518
    21   1 H        0.924     0.030     2.590     2.517
    22   1 H        0.924     0.029     2.608     2.525
    23   1 H        0.924     0.028     2.609     2.526
    24   1 H        0.925     0.033     2.541     2.493
    25   1 H        0.925     0.033     2.550     2.497
    26   1 H        0.925     0.033     2.542     2.493

Wiberg/Mayer (AO) data.
largest (>0.10) Wiberg bond orders for each atom

     #   Z sym  total        # sym  WBO       # sym  WBO       # sym  WBO
 ---------------------------------------------------------------------------
     1   6 C    3.997 --     2 C    1.019     9 H    0.988    11 H    0.988
                            10 H    0.988
     2   6 C    3.998 --     1 C    1.019     3 C    1.008    12 H    0.979
                            13 H    0.979
     3   6 C    3.997 --     2 C    1.008     4 C    1.007    15 H    0.978
                            14 H    0.977
     4   6 C    3.997 --     3 C    1.007     5 C    1.007    16 H    0.978
                            17 H    0.977
     5   6 C    3.997 --     6 C    1.007     4 C    1.007    19 H    0.978
                            18 H    0.977
     6   6 C    3.997 --     7 C    1.008     5 C    1.007    20 H    0.978
                            21 H    0.977
     7   6 C    3.998 --     8 C    1.019     6 C    1.008    23 H    0.979
                            22 H    0.979
     8   6 C    3.997 --     7 C    1.019    26 H    0.988    24 H    0.988
                            25 H    0.988
     9   1 H    0.999 --     1 C    0.988
    10   1 H    0.999 --     1 C    0.988
    11   1 H    0.999 --     1 C    0.988
    12   1 H    0.999 --     2 C    0.979
    13   1 H    0.999 --     2 C    0.979
    14   1 H    0.999 --     3 C    0.977
    15   1 H    0.999 --     3 C    0.978
    16   1 H    0.999 --     4 C    0.978
    17   1 H    0.999 --     4 C    0.977
    18   1 H    0.999 --     5 C    0.977
    19   1 H    0.999 --     5 C    0.978
    20   1 H    0.999 --     6 C    0.978
    21   1 H    0.999 --     6 C    0.977
    22   1 H    0.999 --     7 C    0.979
    23   1 H    0.999 --     7 C    0.979
    24   1 H    0.999 --     8 C    0.988
    25   1 H    0.999 --     8 C    0.988
    26   1 H    0.999 --     8 C    0.988
 ---------------------------------------------------------------------------

molecular dipole:
                 x           y           z       tot (Debye)
 q only:       -0.000      -0.000      -0.002
   full:       -0.000      -0.000      -0.001       0.003

 projected vibrational frequencies (cm⁻¹)
eigval :       -0.00    -0.00     0.00     0.00     0.00     0.00
eigval :       44.22    64.08    80.72   100.90   127.11   146.22
eigval :      199.41   232.08   234.27   279.04   341.74   469.51
eigval :      469.54   768.16   773.05   794.44   840.30   903.32
eigval :      933.39   948.97   967.75  1019.57  1044.26  1074.42
eigval :     1097.26  1105.15  1108.76  1122.76  1145.81  1199.06
eigval :     1217.03  1239.64  1248.91  1274.30  1277.53  1285.08
eigval :     1292.77  1295.70  1326.92  1359.83  1377.24  1379.08
eigval :     1415.95  1416.04  1495.66  1495.79  1498.54  1499.29
eigval :     1501.77  1504.43  1504.79  1504.80  1507.90  1508.10
eigval :     2953.45  2955.73  2959.57  2965.25  2972.44  2973.33
eigval :     2973.37  2976.98  2978.14  2979.53  2983.73  2990.24
eigval :     3030.02  3030.21  3032.40  3032.59  3037.71  3038.11

   temp. (K)  partition function   enthalpy   heat capacity  entropy
                                   cal/mol     cal/K/mol   cal/K/mol   J/K/mol
 298.15  VIB  0.618E+04             5224.119     31.699     33.578
         ROT  0.270E+06              888.752      2.981     27.834
         INT  0.167E+10             6112.871     34.680     61.411
         TR   0.118E+28             1481.254      4.968     40.096
         TOT                        7594.1252    39.6478   101.5078   424.7088

       T/K    H(0)-H(T)+PV         H(T)/Eh          T*S/Eh         G(T)/Eh
   ------------------------------------------------------------------------
    298.15    0.121020E-01    0.255695E+00    0.482297E-01    0.207466E+00
   ------------------------------------------------------------------------

         :::::::::::::::::::::::::::::::::::::::::::::::::::::
         ::                  THERMODYNAMIC                  ::
         :::::::::::::::::::::::::::::::::::::::::::::::::::::
         :: total free energy         -26.115154806286 Eh   ::
         ::.................................................::
         :: total energy              -26.322620581768 Eh   ::
         :: zero point energy           0.243593420464 Eh   ::
         :: G(RRHO) w/o ZPVE           -0.036127644982 Eh   ::
         :: G(RRHO) contrib.            0.207465775482 Eh   ::
         :::::::::::::::::::::::::::::::::::::::::::::::::::::

           -------------------------------------------------
          | TOTAL ENERGY              -26.322620581768 Eh   |
          | TOTAL ENTHALPY            -26.066925152482 Eh   |
          | TOTAL FREE ENERGY         -26.115154806286 Eh   |
          | GRADIENT NORM               0.000451365305 Eh/α |
          | HOMO-LUMO GAP              12.581018951928 eV   |
           -------------------------------------------------

 * finished run on 2024/04/20 at 10:58:44.869
