   * xtb version 6.6.1 (8d0f1dd) compiled by 'stahn@M-Bot' on 2023-08-01
          program call               : xtb folded.xyz --gfn 2 --ohess -P 4

   ID    Z sym.   atoms
    1    6 C      1-12
    2    1 H      13-38

          :  Hamiltonian                  GFN2-xTB          :
 * total energy  :   -38.9735854 Eh     change       -0.3637979E-10 Eh
 * total energy  :   -38.9758212 Eh     change       -0.2235822E-02 Eh
 * total energy  :   -38.9761640 Eh     change       -0.3428725E-03 Eh
 * total energy  :   -38.9761924 Eh     change       -0.2838326E-04 Eh
 * total energy  :   -38.9762310 Eh     change       -0.3856813E-04 Eh
 * total energy  :   -38.9762417 Eh     change       -0.1066808E-04 Eh
 * total energy  :   -38.9762544 Eh     change       -0.1270483E-04 Eh
 * total energy  :   -38.9762602 Eh     change       -0.5837504E-05 Eh
 * total energy  :   -38.9762784 Eh     change       -0.1816337E-04 Eh
 * total energy  :   -38.9762948 Eh     change       -0.1645627E-04 Eh
 * total energy  :   -38.9763733 Eh     change       -0.1605067E-04 Eh
 * total energy  :   -38.9763831 Eh     change       -0.9781870E-05 Eh
 * total energy  :   -38.9763906 Eh     change       -0.7480711E-05 Eh
 * total energy  :   -38.9763981 Eh     change       -0.7539195E-05 Eh
 * total energy  :   -38.9764075 Eh     change       -0.9377741E-05 Eh
 * total energy  :   -38.9764180 Eh     change       -0.1048132E-04 Eh
 * total energy  :   -38.9764253 Eh     change       -0.7346769E-05 Eh
 * total energy  :   -38.9764309 Eh     change       -0.5530730E-05 Eh
 * total energy  :   -38.9764331 Eh     change       -0.2191221E-05 Eh
   *** GEOMETRY OPTIMIZATION CONVERGED AFTER 22 ITERATIONS ***

 final structure:
================
38
 xtb: 6.6.1 (8d0f1dd)
C            3.02335892126411        2.71143933502401       -0.65182991510513
C            2.94182183132373        1.60388428160749        0.39165029850271
C            2.37284260424936        0.31346049665047       -0.19346600038434
C            2.26298347525920       -0.78839469444033        0.85779876113294
C            1.78889434397813       -2.12945054697301        0.29325393234151
C            0.39804679266911       -2.10258560902050       -0.34336008574065
C           -0.70658675758446       -1.74794133836970        0.64887810459737
C           -2.10868139312764       -1.82403276459625        0.04328897133439
C           -2.36342555900501       -0.85319469473650       -1.11340482759999
C           -2.07957679982626        0.61687576265803       -0.80140322469740
C           -2.92538531614667        1.17871915723440        0.33856975251584
C           -2.65881417779011        2.66464219426739        0.54821072430790
H            2.03390376491673        2.94407081168411       -1.04041135478233
H            3.65304093170660        2.40471267697946       -1.48436827015177
H            3.44325470974418        3.61680930607699       -0.21945685012671
H            3.93854464195778        1.41028326716342        0.79494204150816
H            2.30979462561452        1.93266261151727        1.22038852631689
H            3.01481549942789       -0.02762275237505       -1.00937235315890
H            1.38836896436838        0.52601027874163       -0.61374491268464
H            3.24686559598787       -0.93845808493493        1.31050144271794
H            1.58981424306853       -0.46377066109454        1.65335333527262
H            2.50790470657532       -2.46558508442391       -0.45844051425410
H            1.79157549438739       -2.86477401649320        1.10225038745119
H            0.19139897244724       -3.09224672041234       -0.75970042468672
H            0.39535837386686       -1.39465009571542       -1.17182484628265
H           -0.65727010313119       -2.44336113475583        1.49131980260384
H           -0.54134971204498       -0.74615113692393        1.04403377353937
H           -2.83914310096883       -1.63748162968339        0.83341653356295
H           -2.28165357200975       -2.83955462225367       -0.32302701971429
H           -3.41010450852786       -0.95221977102871       -1.41333349834548
H           -1.75387294810107       -1.14903526446811       -1.96990169497914
H           -1.02321495346861        0.74672760099277       -0.55989418094526
H           -2.27753253997391        1.20094817683333       -1.70449484111034
H           -2.70175259338929        0.64412725209271        1.26312850541488
H           -3.98344596008620        1.02612462615770        0.11300178890907
H           -2.90807256061370        3.22900554979113       -0.34807165145194
H           -1.60813600154475        2.83412827006573        0.77587282818341
H           -3.25411693547278        3.05014596716140        1.37287295598907
           -------------------------------------------------
          |                Final Singlepoint                |
           -------------------------------------------------

          :  Hamiltonian                  GFN2-xTB          :
         :: gradient norm              0.000194711043 Eh/a0 ::
         :: HOMO-LUMO gap             12.900989828134 eV    ::
         :: SCC energy               -39.560844912282 Eh    ::
         :: -> dispersion             -0.027064223491 Eh    ::
         :: repulsion energy           0.583867941679 Eh    ::

    * Orbital Energies and Occupations

         #    Occupation            Energy/Eh            Energy/eV
      -------------------------------------------------------------
         1        2.0000           -0.6234782             -16.9657
       ...           ...                  ...                  ...
        25        2.0000           -0.4536157             -12.3435
        26        2.0000           -0.4508696             -12.2688
        27        2.0000           -0.4455824             -12.1249
        28        2.0000           -0.4372015             -11.8969
        29        2.0000           -0.4344723             -11.8226
        30        2.0000           -0.4318908             -11.7523
        31        2.0000           -0.4248911             -11.5619
        32        2.0000           -0.4228059             -11.5051
        33        2.0000           -0.4194161             -11.4129
        34        2.0000           -0.4162526             -11.3268
        35        2.0000           -0.4139505             -11.2642
        36        2.0000           -0.4091625             -11.1339
        37        2.0000           -0.4074501             -11.0873 (HOMO)
        38                          0.0666525               1.8137 (LUMO)
        39                          0.0739249               2.0116
        40                          0.0866018               2.3566
        41                          0.0936181               2.5475
        42                          0.0977054               2.6587
        43                          0.1055143               2.8712
        44                          0.1193095               3.2466
        45                          0.1207104               3.2847
        46                          0.1317295               3.5845
        47                          0.1340173               3.6468
        48                          0.1398881               3.8065
       ...                                ...                  ...
        74                          0.3354461               9.1280
      -------------------------------------------------------------
                  HL-Gap            0.4741026 Eh           12.9010 eV

     #   Z          covCN         q      C6AA      α(0)
     1   6 C        3.752    -0.101    22.497     6.764
     2   6 C        3.801    -0.052    21.511     6.603
     3   6 C        3.802    -0.057    21.605     6.617
     4   6 C        3.801    -0.057    21.604     6.618
     5   6 C        3.801    -0.057    21.605     6.618
     6   6 C        3.801    -0.058    21.617     6.620
     7   6 C        3.801    -0.057    21.605     6.618
     8   6 C        3.800    -0.057    21.603     6.618
     9   6 C        3.800    -0.057    21.600     6.617
    10   6 C        3.802    -0.056    21.584     6.614
    11   6 C        3.800    -0.052    21.514     6.604
    12   6 C        3.752    -0.101    22.488     6.762
    13   1 H        0.925     0.033     2.547     2.496
    14   1 H        0.925     0.033     2.547     2.496
    15   1 H        0.925     0.032     2.562     2.503
    16   1 H        0.924     0.027     2.634     2.538
    17   1 H        0.924     0.027     2.634     2.538
    18   1 H        0.924     0.028     2.610     2.526
    19   1 H        0.924     0.032     2.554     2.499
    20   1 H        0.924     0.026     2.649     2.545
    21   1 H        0.924     0.030     2.586     2.515
    22   1 H        0.924     0.027     2.627     2.535
    23   1 H        0.924     0.027     2.630     2.536
    24   1 H        0.924     0.026     2.649     2.545
    25   1 H        0.925     0.035     2.514     2.479
    26   1 H        0.924     0.025     2.662     2.552
    27   1 H        0.925     0.038     2.478     2.462
    28   1 H        0.924     0.029     2.608     2.525
    29   1 H        0.924     0.026     2.647     2.544
    30   1 H        0.924     0.026     2.646     2.544
    31   1 H        0.924     0.029     2.601     2.522
    32   1 H        0.924     0.033     2.543     2.494
    33   1 H        0.924     0.026     2.651     2.546
    34   1 H        0.924     0.032     2.564     2.504
    35   1 H        0.924     0.027     2.634     2.538
    36   1 H        0.925     0.031     2.571     2.507
    37   1 H        0.925     0.032     2.558     2.501
    38   1 H        0.925     0.031     2.575     2.509

Wiberg/Mayer (AO) data.
largest (>0.10) Wiberg bond orders for each atom

     #   Z sym  total        # sym  WBO       # sym  WBO       # sym  WBO
 ---------------------------------------------------------------------------
     1   6 C    3.997 --     2 C    1.019    14 H    0.988    13 H    0.988
                            15 H    0.988
     2   6 C    3.998 --     1 C    1.019     3 C    1.008    17 H    0.979
                            16 H    0.979
     3   6 C    3.997 --     4 C    1.008     2 C    1.008    18 H    0.977
                            19 H    0.972
     4   6 C    3.998 --     3 C    1.008     5 C    1.007    20 H    0.977
                            21 H    0.975
     5   6 C    3.997 --     6 C    1.007     4 C    1.007    22 H    0.978
                            23 H    0.977
     6   6 C    3.998 --     7 C    1.009     5 C    1.007    24 H    0.977
                            25 H    0.973
     7   6 C    3.998 --     6 C    1.009     8 C    1.007    26 H    0.977
                            27 H    0.971
     8   6 C    3.998 --     7 C    1.007     9 C    1.007    29 H    0.977
                            28 H    0.977
     9   6 C    3.998 --    10 C    1.007     8 C    1.007    30 H    0.978
                            31 H    0.976
    10   6 C    3.997 --    11 C    1.009     9 C    1.007    33 H    0.977
                            32 H    0.972
    11   6 C    3.998 --    12 C    1.019    10 C    1.009    35 H    0.979
                            34 H    0.976
    12   6 C    3.997 --    11 C    1.019    36 H    0.988    37 H    0.988
                            38 H    0.988
    13   1 H    0.999 --     1 C    0.988
    14   1 H    0.999 --     1 C    0.988
    15   1 H    0.999 --     1 C    0.988
    16   1 H    0.999 --     2 C    0.979
    17   1 H    0.999 --     2 C    0.979
    18   1 H    0.999 --     3 C    0.977
    19   1 H    0.999 --     3 C    0.972
    20   1 H    0.999 --     4 C    0.977
    21   1 H    0.999 --     4 C    0.975
    22   1 H    0.999 --     5 C    0.978
    23   1 H    0.999 --     5 C    0.977
    24   1 H    0.999 --     6 C    0.977
    25   1 H    0.999 --     6 C    0.973
    26   1 H    0.999 --     7 C    0.977
    27   1 H    0.999 --     7 C    0.971
    28   1 H    0.999 --     8 C    0.977
    29   1 H    0.999 --     8 C    0.977
    30   1 H    0.999 --     9 C    0.978
    31   1 H    0.999 --     9 C    0.976
    32   1 H    0.999 --    10 C    0.972
    33   1 H    0.999 --    10 C    0.977
    34   1 H    0.999 --    11 C    0.976
    35   1 H    0.999 --    11 C    0.979
    36   1 H    0.999 --    12 C    0.988
    37   1 H    0.999 --    12 C    0.988
    38   1 H    0.999 --    12 C    0.988
 ---------------------------------------------------------------------------

molecular dipole:
                 x           y           z       tot (Debye)
 q only:        0.001       0.012      -0.005
   full:        0.002       0.010      -0.006       0.030

 projected vibrational frequencies (cm⁻¹)
eigval :       -0.00    -0.00     0.00     0.00     0.00     0.00
eigval :       17.25    19.93    38.36    60.63    79.19    91.53
eigval :      107.54   153.90   167.09   212.40   227.82   236.40
eigval :      257.71   274.95   277.51   319.70   374.60   400.49
eigval :      436.15   488.56   536.34   743.67   762.72   781.63
eigval :      799.65   830.57   853.65   885.49   895.11   928.72
eigval :      932.32   953.13   957.50   991.93  1021.92  1045.76
eigval :     1062.20  1069.19  1089.82  1095.98  1102.79  1113.75
eigval :     1143.13  1150.99  1152.13  1162.75  1178.60  1201.12
eigval :     1220.98  1234.96  1254.57  1273.40  1276.81  1280.51
eigval :     1286.38  1290.00  1292.17  1309.52  1315.92  1349.44
eigval :     1357.96  1361.02  1363.06  1374.57  1377.65  1378.30
eigval :     1416.91  1417.43  1485.62  1490.38  1493.26  1494.61
eigval :     1498.11  1499.49  1503.58  1504.56  1505.39  1506.36
eigval :     1506.50  1507.89  1509.11  1514.48  2954.19  2954.69
eigval :     2955.43  2956.23  2956.95  2958.84  2959.47  2963.92
eigval :     2970.50  2971.08  2975.30  2977.01  2981.66  2983.19
eigval :     2986.14  2988.48  2990.81  2993.27  3008.01  3010.25
eigval :     3026.27  3028.01  3030.10  3031.31  3036.09  3037.01

   temp. (K)  partition function   enthalpy   heat capacity  entropy
                                   cal/mol     cal/K/mol   cal/K/mol   J/K/mol
 298.15  VIB  0.712E+07             8218.928     48.159     52.821
         ROT  0.229E+07              888.752      2.981     32.085
         INT  0.163E+14             9107.680     51.140     84.906
         TR   0.215E+28             1481.254      4.968     41.287
         TOT                       10588.9344    56.1082   126.1926   527.9900

       T/K    H(0)-H(T)+PV         H(T)/Eh          T*S/Eh         G(T)/Eh
   ------------------------------------------------------------------------
    298.15    0.168745E-01    0.374135E+00    0.599582E-01    0.314177E+00
   ------------------------------------------------------------------------

         :::::::::::::::::::::::::::::::::::::::::::::::::::::
         ::                  THERMODYNAMIC                  ::
         :::::::::::::::::::::::::::::::::::::::::::::::::::::
         :: total free energy         -38.662255809774 Eh   ::
         ::.................................................::
         :: total energy              -38.976433053786 Eh   ::
         :: zero point energy           0.357260899847 Eh   ::
         :: G(RRHO) w/o ZPVE           -0.043083655835 Eh   ::
         :: G(RRHO) contrib.            0.314177244012 Eh   ::
         :::::::::::::::::::::::::::::::::::::::::::::::::::::

           -------------------------------------------------
          | TOTAL ENERGY              -38.976433053786 Eh   |
          | TOTAL ENTHALPY            -38.602297612843 Eh   |
          | TOTAL FREE ENERGY         -38.662255809774 Eh   |
          | GRADIENT NORM               0.000194709430 Eh/α |
          | HOMO-LUMO GAP              12.900989709248 eV   |
           -------------------------------------------------

 * finished run on 2024/04/23 at 12:10:30.865
