   * xtb version 6.6.1 (8d0f1dd) compiled by 'stahn@M-Bot' on 2023-08-01
          program call               : xtb unfolded.xyz --gfn 2 --ohess -P 4

   ID    Z sym.   atoms
    1    6 C      1-7
    2    1 H      8-23

          :  Hamiltonian                  GFN2-xTB          :
 * total energy  :   -23.1558560 Eh     change       -0.1030287E-10 Eh
 * total energy  :   -23.1571262 Eh     change       -0.1270181E-02 Eh
 * total energy  :   -23.1572966 Eh     change       -0.1703986E-03 Eh
 * total energy  :   -23.1573049 Eh     change       -0.8264107E-05 Eh
 * total energy  :   -23.1573124 Eh     change       -0.7491030E-05 Eh
 * total energy  :   -23.1573186 Eh     change       -0.6200263E-05 Eh
 * total energy  :   -23.1573265 Eh     change       -0.7940732E-05 Eh
 * total energy  :   -23.1573271 Eh     change       -0.5672208E-06 Eh
   *** GEOMETRY OPTIMIZATION CONVERGED AFTER 8 ITERATIONS ***

 final structure:
================
23
 xtb: 6.6.1 (8d0f1dd)
C           -3.69909228125004       -0.02879747584801       -0.18115638138185
C           -2.33430276225167       -0.53127798427983        0.27308642212682
C           -1.20831339209597        0.40021604742525       -0.16909090126807
C            0.16276318767302       -0.10424633140879        0.27437779108594
C            1.28610985204474        0.82117975309589       -0.18788232256743
C            2.66626819834447        0.39946267047424        0.31736350234236
C            3.15510752528118       -0.90882952644418       -0.29332515640713
H           -3.90112234419999        0.95578064313981        0.23533200092504
H           -3.73599331685088        0.04563817836257       -1.26596814921793
H           -4.48544338654164       -0.70660399789870        0.14319547842937
H           -2.32339778323172       -0.61811446092709        1.36217138308624
H           -2.15970330959296       -1.52807507940646       -0.13895046275008
H           -1.22385713484924        0.49156336728746       -1.25801908621506
H           -1.38041880765580        1.39599010044733        0.24704557937756
H            0.31848105077929       -1.10522957965743       -0.13157239524846
H            0.18410531292760       -0.18006996072568        1.36446322189132
H            1.07621113322978        1.83213049533506        0.17120579108083
H            1.29854181317591        0.85657112793550       -1.27998326758377
H            3.38165453373940        1.18934068612167        0.07513551308600
H            2.63740839647533        0.30342702708469        1.40528226988992
H            3.14791682759776       -0.84718306120737       -1.37956944445932
H            2.52468359779864       -1.74091426858535        0.00878618112841
H            4.17171308945277       -1.12031937032060        0.03083343264927
           -------------------------------------------------
          |                Final Singlepoint                |
           -------------------------------------------------

          :  Hamiltonian                  GFN2-xTB          :
         :: gradient norm              0.000184906064 Eh/a0 ::
         :: HOMO-LUMO gap             12.870683508293 eV    ::
         :: SCC energy               -23.508169685229 Eh    ::
         :: -> dispersion             -0.012911901948 Eh    ::
         :: repulsion energy           0.350861231356 Eh    ::

    * Orbital Energies and Occupations

         #    Occupation            Energy/Eh            Energy/eV
      -------------------------------------------------------------
         1        2.0000           -0.6215684             -16.9137
       ...           ...                  ...                  ...
        10        2.0000           -0.5017514             -13.6534
        11        2.0000           -0.4906380             -13.3509
        12        2.0000           -0.4793417             -13.0436
        13        2.0000           -0.4764861             -12.9658
        14        2.0000           -0.4655705             -12.6688
        15        2.0000           -0.4526489             -12.3172
        16        2.0000           -0.4457406             -12.1292
        17        2.0000           -0.4410418             -12.0014
        18        2.0000           -0.4322321             -11.7616
        19        2.0000           -0.4234425             -11.5225
        20        2.0000           -0.4229580             -11.5093
        21        2.0000           -0.4169613             -11.3461
        22        2.0000           -0.4138289             -11.2609 (HOMO)
        23                          0.0591600               1.6098 (LUMO)
        24                          0.1030728               2.8048
        25                          0.1150311               3.1302
        26                          0.1203693               3.2754
        27                          0.1390908               3.7849
        28                          0.1395693               3.7979
        29                          0.1508968               4.1061
        30                          0.1555918               4.2339
        31                          0.1608888               4.3780
        32                          0.1719473               4.6789
        33                          0.1820066               4.9527
       ...                                ...                  ...
        44                          0.3213368               8.7440
      -------------------------------------------------------------
                  HL-Gap            0.4729889 Eh           12.8707 eV

     #   Z          covCN         q      C6AA      α(0)
     1   6 C        3.752    -0.102    22.507     6.765
     2   6 C        3.801    -0.053    21.518     6.605
     3   6 C        3.803    -0.059    21.633     6.622
     4   6 C        3.802    -0.058    21.624     6.620
     5   6 C        3.802    -0.058    21.615     6.619
     6   6 C        3.800    -0.053    21.520     6.605
     7   6 C        3.751    -0.102    22.504     6.765
     8   1 H        0.925     0.033     2.544     2.494
     9   1 H        0.925     0.033     2.544     2.494
    10   1 H        0.925     0.032     2.554     2.499
    11   1 H        0.924     0.028     2.613     2.528
    12   1 H        0.924     0.028     2.614     2.528
    13   1 H        0.924     0.029     2.600     2.521
    14   1 H        0.924     0.028     2.609     2.526
    15   1 H        0.924     0.032     2.563     2.503
    16   1 H        0.924     0.028     2.614     2.529
    17   1 H        0.924     0.027     2.631     2.537
    18   1 H        0.924     0.030     2.586     2.515
    19   1 H        0.924     0.028     2.621     2.532
    20   1 H        0.924     0.029     2.600     2.522
    21   1 H        0.925     0.034     2.537     2.491
    22   1 H        0.925     0.034     2.524     2.484
    23   1 H        0.925     0.031     2.576     2.510

Wiberg/Mayer (AO) data.
largest (>0.10) Wiberg bond orders for each atom

     #   Z sym  total        # sym  WBO       # sym  WBO       # sym  WBO
 ---------------------------------------------------------------------------
     1   6 C    3.997 --     2 C    1.019     8 H    0.988     9 H    0.988
                            10 H    0.988
     2   6 C    3.998 --     1 C    1.019     3 C    1.008    11 H    0.979
                            12 H    0.979
     3   6 C    3.997 --     2 C    1.008     4 C    1.007    13 H    0.978
                            14 H    0.978
     4   6 C    3.998 --     5 C    1.008     3 C    1.007    16 H    0.977
                            15 H    0.976
     5   6 C    3.997 --     4 C    1.008     6 C    1.007    17 H    0.978
                            18 H    0.977
     6   6 C    3.998 --     7 C    1.020     5 C    1.007    19 H    0.979
                            20 H    0.978
     7   6 C    3.997 --     6 C    1.020    21 H    0.988    23 H    0.988
                            22 H    0.986
     8   1 H    0.999 --     1 C    0.988
     9   1 H    0.999 --     1 C    0.988
    10   1 H    0.999 --     1 C    0.988
    11   1 H    0.999 --     2 C    0.979
    12   1 H    0.999 --     2 C    0.979
    13   1 H    0.999 --     3 C    0.978
    14   1 H    0.999 --     3 C    0.978
    15   1 H    0.999 --     4 C    0.976
    16   1 H    0.999 --     4 C    0.977
    17   1 H    0.999 --     5 C    0.978
    18   1 H    0.999 --     5 C    0.977
    19   1 H    0.999 --     6 C    0.979
    20   1 H    0.999 --     6 C    0.978
    21   1 H    0.999 --     7 C    0.988
    22   1 H    0.999 --     7 C    0.986
    23   1 H    0.999 --     7 C    0.988
 ---------------------------------------------------------------------------

molecular dipole:
                 x           y           z       tot (Debye)
 q only:        0.004      -0.010      -0.008
   full:        0.001      -0.006      -0.007       0.024

 projected vibrational frequencies (cm⁻¹)
eigval :       -0.00    -0.00    -0.00     0.00     0.00     0.00
eigval :       47.63    70.68   115.43   122.96   135.49   226.91
eigval :      234.34   282.91   353.79   396.26   487.28   769.23
eigval :      786.75   813.89   870.29   923.54   947.92   960.07
eigval :     1008.85  1027.47  1084.07  1094.07  1114.80  1135.39
eigval :     1146.11  1184.31  1218.05  1248.62  1262.99  1277.94
eigval :     1285.12  1294.63  1324.28  1353.68  1367.95  1379.46
eigval :     1415.95  1416.46  1491.37  1493.51  1496.88  1499.96
eigval :     1500.70  1504.99  1507.57  1508.23  1510.92  2954.12
eigval :     2956.44  2961.34  2964.68  2972.18  2973.49  2978.36
eigval :     2979.34  2982.60  2991.47  3029.68  3030.64  3031.80
eigval :     3033.84  3037.48  3046.48

   temp. (K)  partition function   enthalpy   heat capacity  entropy
                                   cal/mol     cal/K/mol   cal/K/mol   J/K/mol
 298.15  VIB  0.104E+04             4324.309     27.049     27.369
         ROT  0.373E+06              888.752      2.981     28.476
         INT  0.389E+09             5213.061     30.030     55.845
         TR   0.970E+27             1481.254      4.968     39.706
         TOT                        6694.3151    34.9985    95.5511   399.7859

       T/K    H(0)-H(T)+PV         H(T)/Eh          T*S/Eh         G(T)/Eh
   ------------------------------------------------------------------------
    298.15    0.106681E-01    0.226237E+00    0.453994E-01    0.180837E+00
   ------------------------------------------------------------------------

         :::::::::::::::::::::::::::::::::::::::::::::::::::::
         ::                  THERMODYNAMIC                  ::
         :::::::::::::::::::::::::::::::::::::::::::::::::::::
         :: total free energy         -22.976489904471 Eh   ::
         ::.................................................::
         :: total energy              -23.157327060392 Eh   ::
         :: zero point energy           0.215568508305 Eh   ::
         :: G(RRHO) w/o ZPVE           -0.034731352384 Eh   ::
         :: G(RRHO) contrib.            0.180837155921 Eh   ::
         :::::::::::::::::::::::::::::::::::::::::::::::::::::

           -------------------------------------------------
          | TOTAL ENERGY              -23.157327060392 Eh   |
          | TOTAL ENTHALPY            -22.931090481974 Eh   |
          | TOTAL FREE ENERGY         -22.976489904471 Eh   |
          | GRADIENT NORM               0.000184911134 Eh/α |
          | HOMO-LUMO GAP              12.870683522628 eV   |
           -------------------------------------------------

 * finished run on 2024/04/20 at 10:58:56.185
