   * xtb version 6.6.1 (8d0f1dd) compiled by 'stahn@M-Bot' on 2023-08-01
          program call               : xtb folded.xyz --gfn 2 --ohess -P 4

   ID    Z sym.   atoms
    1    6 C      1-15
    2    1 H      16-47

          :  Hamiltonian                  GFN2-xTB          :
 * total energy  :   -48.4662309 Eh     change       -0.5255174E-10 Eh
 * total energy  :   -48.4690454 Eh     change       -0.2814448E-02 Eh
 * total energy  :   -48.4694924 Eh     change       -0.4470627E-03 Eh
 * total energy  :   -48.4695252 Eh     change       -0.3280578E-04 Eh
 * total energy  :   -48.4695830 Eh     change       -0.5777994E-04 Eh
 * total energy  :   -48.4696088 Eh     change       -0.2575645E-04 Eh
 * total energy  :   -48.4696659 Eh     change       -0.5712679E-04 Eh
 * total energy  :   -48.4696873 Eh     change       -0.2139034E-04 Eh
 * total energy  :   -48.4697146 Eh     change       -0.2727840E-04 Eh
 * total energy  :   -48.4697419 Eh     change       -0.2729713E-04 Eh
 * total energy  :   -48.4698273 Eh     change       -0.2271232E-04 Eh
 * total energy  :   -48.4698427 Eh     change       -0.1537837E-04 Eh
 * total energy  :   -48.4698541 Eh     change       -0.1136376E-04 Eh
 * total energy  :   -48.4698646 Eh     change       -0.1052418E-04 Eh
 * total energy  :   -48.4698731 Eh     change       -0.8473225E-05 Eh
 * total energy  :   -48.4698811 Eh     change       -0.8051955E-05 Eh
 * total energy  :   -48.4698880 Eh     change       -0.6875455E-05 Eh
 * total energy  :   -48.4698937 Eh     change       -0.5710538E-05 Eh
 * total energy  :   -48.4698967 Eh     change       -0.2938048E-05 Eh
   *** GEOMETRY OPTIMIZATION CONVERGED AFTER 22 ITERATIONS ***

 final structure:
================
47
 xtb: 6.6.1 (8d0f1dd)
C            0.39838703444629        3.20437470687285        1.05145406020809
C           -0.67890899885755        2.68093490519720        0.10921586917394
C           -2.00772099516749        2.47570347984708        0.83352330418487
C           -3.16437356299930        2.09489257079769       -0.09394592740567
C           -2.93188426528673        0.83855979205676       -0.93575059251292
C           -2.64807996007056       -0.41021463757175       -0.10474548662892
C           -2.38794926938861       -1.62473834620934       -0.99275667229580
C           -2.02606565979342       -2.89081289282045       -0.21258337271855
C           -0.81557471150075       -2.75224160615117        0.71442923877192
C            0.44545297400677       -2.26266995009715        0.00637290453485
C            1.63069612421744       -2.17350689650254        0.96504894844327
C            2.90216187775766       -1.63841192588631        0.30473276503095
C            2.80814909769007       -0.16267646057472       -0.07876589917176
C            4.13296322447878        0.37497173555342       -0.61420079062515
C            4.03473483840369        1.84978132695683       -0.98463586542117
H            0.55345520286363        2.51056911520838        1.87551733272073
H            0.11024313045437        4.16762928125094        1.46748370513587
H            1.34115796401535        3.32669684265045        0.52304383916312
H           -0.81996414990918        3.38917575136620       -0.71065731979090
H           -0.34150365030485        1.73612256249295       -0.31946170964440
H           -2.27588353111221        3.40503383773668        1.34334501393917
H           -1.88441236609675        1.71202025841381        1.60382683650444
H           -4.06072498476043        1.95206079710147        0.51507752327144
H           -3.35835088276718        2.92974385866888       -0.77257864740640
H           -3.82091474280277        0.66568541126451       -1.54808365387480
H           -2.09867967821227        1.00996386064364       -1.62042449877652
H           -1.77273763943918       -0.22954150891198        0.51689089177312
H           -3.49418694498093       -0.61276836233390        0.55606141656716
H           -3.28170351166249       -1.83062435344474       -1.58763483133281
H           -1.58472612519610       -1.38942817758689       -1.69403470514941
H           -2.88606691841108       -3.19470867275102        0.38956893797018
H           -1.82980370749063       -3.69028245209044       -0.93168321123791
H           -0.61495222915295       -3.72872577047675        1.16328608921113
H           -1.05603453383588       -2.06871346549511        1.53117104054899
H            0.25935477202349       -1.27746272543656       -0.41905854074434
H            0.69048391724172       -2.94226558997869       -0.81334584793880
H            1.36551948852098       -1.52562325770545        1.80460701041930
H            1.83374196910806       -3.16805718594565        1.37042631165190
H            3.12485240652573       -2.23154129934805       -0.58552158630619
H            3.73615081758790       -1.76420068986757        1.00014359368578
H            2.04113486438369       -0.02495842193696       -0.84292648259119
H            2.51296000827855        0.41936401560396        0.79764582260125
H            4.42735783258302       -0.20230252676840       -1.49388576166002
H            4.90997837058844        0.24238625469909        0.14238282868923
H            3.27192796469904        2.00225611038163       -1.74551949027626
H            3.77087944124905        2.44354616245012       -0.11175789223517
H            4.98344769807594        2.21387153867750       -1.37219249845573
           -------------------------------------------------
          |                Final Singlepoint                |
           -------------------------------------------------

          :  Hamiltonian                  GFN2-xTB          :
         :: gradient norm              0.000267621683 Eh/a0 ::
         :: HOMO-LUMO gap             12.672318855241 eV    ::
         :: SCC energy               -49.194687588199 Eh    ::
         :: -> dispersion             -0.035011311418 Eh    ::
         :: repulsion energy           0.723913412336 Eh    ::

    * Orbital Energies and Occupations

         #    Occupation            Energy/Eh            Energy/eV
      -------------------------------------------------------------
         1        2.0000           -0.6235447             -16.9675
       ...           ...                  ...                  ...
        34        2.0000           -0.4419037             -12.0248
        35        2.0000           -0.4358719             -11.8607
        36        2.0000           -0.4325886             -11.7713
        37        2.0000           -0.4301670             -11.7054
        38        2.0000           -0.4258828             -11.5889
        39        2.0000           -0.4233076             -11.5188
        40        2.0000           -0.4229675             -11.5095
        41        2.0000           -0.4196744             -11.4199
        42        2.0000           -0.4151550             -11.2969
        43        2.0000           -0.4133092             -11.2467
        44        2.0000           -0.4117772             -11.2050
        45        2.0000           -0.4098637             -11.1530
        46        2.0000           -0.4085063             -11.1160 (HOMO)
        47                          0.0571928               1.5563 (LUMO)
        48                          0.0662481               1.8027
        49                          0.0786392               2.1399
        50                          0.0808739               2.2007
        51                          0.0997249               2.7137
        52                          0.1031499               2.8069
        53                          0.1069857               2.9112
        54                          0.1154356               3.1412
        55                          0.1220776               3.3219
        56                          0.1232924               3.3550
        57                          0.1258207               3.4238
       ...                                ...                  ...
        92                          0.3322703               9.0415
      -------------------------------------------------------------
                  HL-Gap            0.4656992 Eh           12.6723 eV

     #   Z          covCN         q      C6AA      α(0)
     1   6 C        3.752    -0.100    22.475     6.761
     2   6 C        3.800    -0.052    21.499     6.602
     3   6 C        3.802    -0.058    21.612     6.619
     4   6 C        3.800    -0.057    21.607     6.618
     5   6 C        3.802    -0.057    21.603     6.617
     6   6 C        3.802    -0.060    21.645     6.624
     7   6 C        3.802    -0.057    21.602     6.617
     8   6 C        3.800    -0.057    21.602     6.617
     9   6 C        3.801    -0.057    21.599     6.617
    10   6 C        3.802    -0.059    21.627     6.621
    11   6 C        3.802    -0.057    21.602     6.617
    12   6 C        3.802    -0.058    21.617     6.620
    13   6 C        3.803    -0.058    21.618     6.619
    14   6 C        3.801    -0.053    21.524     6.605
    15   6 C        3.752    -0.101    22.480     6.761
    16   1 H        0.925     0.031     2.577     2.510
    17   1 H        0.925     0.030     2.585     2.514
    18   1 H        0.925     0.033     2.548     2.496
    19   1 H        0.924     0.027     2.628     2.535
    20   1 H        0.924     0.033     2.545     2.495
    21   1 H        0.924     0.027     2.625     2.534
    22   1 H        0.924     0.030     2.580     2.512
    23   1 H        0.924     0.028     2.622     2.532
    24   1 H        0.924     0.027     2.630     2.536
    25   1 H        0.924     0.025     2.660     2.550
    26   1 H        0.924     0.029     2.599     2.521
    27   1 H        0.925     0.041     2.433     2.439
    28   1 H        0.924     0.027     2.634     2.538
    29   1 H        0.924     0.025     2.658     2.550
    30   1 H        0.924     0.029     2.596     2.519
    31   1 H        0.924     0.028     2.621     2.532
    32   1 H        0.924     0.027     2.623     2.533
    33   1 H        0.924     0.025     2.652     2.546
    34   1 H        0.924     0.030     2.593     2.518
    35   1 H        0.925     0.038     2.482     2.464
    36   1 H        0.924     0.028     2.622     2.532
    37   1 H        0.924     0.028     2.614     2.528
    38   1 H        0.924     0.026     2.645     2.544
    39   1 H        0.924     0.028     2.610     2.526
    40   1 H        0.924     0.027     2.628     2.535
    41   1 H        0.924     0.031     2.575     2.509
    42   1 H        0.924     0.032     2.559     2.501
    43   1 H        0.924     0.027     2.624     2.533
    44   1 H        0.924     0.027     2.628     2.535
    45   1 H        0.925     0.033     2.548     2.496
    46   1 H        0.925     0.032     2.556     2.500
    47   1 H        0.925     0.032     2.565     2.505

Wiberg/Mayer (AO) data.
largest (>0.10) Wiberg bond orders for each atom

     #   Z sym  total        # sym  WBO       # sym  WBO       # sym  WBO
 ---------------------------------------------------------------------------
     1   6 C    3.997 --     2 C    1.019    17 H    0.988    16 H    0.988
                            18 H    0.986
     2   6 C    3.998 --     1 C    1.019     3 C    1.009    19 H    0.979
                            20 H    0.976
     3   6 C    3.997 --     2 C    1.009     4 C    1.007    21 H    0.977
                            22 H    0.976
     4   6 C    3.997 --     3 C    1.007     5 C    1.007    23 H    0.978
                            24 H    0.978
     5   6 C    3.998 --     6 C    1.008     4 C    1.007    25 H    0.977
                            26 H    0.976
     6   6 C    3.997 --     5 C    1.008     7 C    1.008    28 H    0.978
                            27 H    0.970
     7   6 C    3.997 --     6 C    1.008     8 C    1.006    29 H    0.977
                            30 H    0.975
     8   6 C    3.997 --     7 C    1.006     9 C    1.006    32 H    0.978
                            31 H    0.978
     9   6 C    3.997 --    10 C    1.008     8 C    1.006    33 H    0.977
                            34 H    0.975
    10   6 C    3.997 --     9 C    1.008    11 C    1.008    36 H    0.978
                            35 H    0.971
    11   6 C    3.997 --    10 C    1.008    12 C    1.006    38 H    0.978
                            37 H    0.977
    12   6 C    3.997 --    13 C    1.008    11 C    1.006    39 H    0.978
                            40 H    0.977
    13   6 C    3.997 --    12 C    1.008    14 C    1.008    42 H    0.977
                            41 H    0.975
    14   6 C    3.998 --    15 C    1.019    13 C    1.008    43 H    0.979
                            44 H    0.978
    15   6 C    3.997 --    14 C    1.019    45 H    0.988    47 H    0.988
                            46 H    0.987
    16   1 H    0.999 --     1 C    0.988
    17   1 H    0.999 --     1 C    0.988
    18   1 H    0.999 --     1 C    0.986
    19   1 H    0.999 --     2 C    0.979
    20   1 H    0.999 --     2 C    0.976
    21   1 H    0.999 --     3 C    0.977
    22   1 H    0.999 --     3 C    0.976
    23   1 H    0.999 --     4 C    0.978
    24   1 H    0.999 --     4 C    0.978
    25   1 H    0.999 --     5 C    0.977
    26   1 H    0.999 --     5 C    0.976
    27   1 H    0.998 --     6 C    0.970
    28   1 H    0.999 --     6 C    0.978
    29   1 H    0.999 --     7 C    0.977
    30   1 H    0.999 --     7 C    0.975
    31   1 H    0.999 --     8 C    0.978
    32   1 H    0.999 --     8 C    0.978
    33   1 H    0.999 --     9 C    0.977
    34   1 H    0.999 --     9 C    0.975
    35   1 H    0.999 --    10 C    0.971
    36   1 H    0.999 --    10 C    0.978
    37   1 H    0.999 --    11 C    0.977
    38   1 H    0.999 --    11 C    0.978
    39   1 H    0.999 --    12 C    0.978
    40   1 H    0.999 --    12 C    0.977
    41   1 H    0.999 --    13 C    0.975
    42   1 H    0.999 --    13 C    0.977
    43   1 H    0.999 --    14 C    0.979
    44   1 H    0.999 --    14 C    0.978
    45   1 H    0.999 --    15 C    0.988
    46   1 H    0.999 --    15 C    0.987
    47   1 H    0.999 --    15 C    0.988
 ---------------------------------------------------------------------------

molecular dipole:
                 x           y           z       tot (Debye)
 q only:        0.019       0.025       0.005
   full:        0.014       0.019       0.005       0.061

 projected vibrational frequencies (cm⁻¹)
eigval :       -0.00    -0.00    -0.00     0.00     0.00     0.00
eigval :       17.24    24.64    32.19    32.56    57.42    69.83
eigval :       80.51    93.88   111.19   128.09   134.66   167.12
eigval :      201.97   204.03   223.60   236.01   241.77   259.02
eigval :      276.74   298.01   303.87   385.79   406.91   408.74
eigval :      490.87   511.05   513.95   754.55   757.70   770.34
eigval :      783.25   802.97   822.04   834.21   873.08   893.09
eigval :      907.77   929.08   934.00   943.57   946.91   979.71
eigval :      997.90  1012.19  1037.60  1043.89  1065.53  1072.46
eigval :     1082.92  1092.26  1107.47  1114.82  1117.87  1128.97
eigval :     1148.90  1149.85  1150.90  1159.81  1168.46  1184.48
eigval :     1224.52  1227.36  1236.12  1252.68  1265.95  1272.05
eigval :     1276.54  1281.77  1282.34  1287.15  1288.57  1291.92
eigval :     1295.05  1303.80  1312.16  1348.35  1351.41  1359.27
eigval :     1359.72  1362.40  1373.86  1376.88  1378.78  1380.73
eigval :     1415.35  1416.48  1486.80  1489.25  1490.26  1492.13
eigval :     1493.20  1495.33  1497.64  1500.70  1502.69  1504.29
eigval :     1504.69  1505.69  1506.99  1508.71  1509.96  1510.79
eigval :     1512.25  2953.85  2954.15  2954.50  2955.42  2955.83
eigval :     2956.54  2959.19  2960.19  2960.22  2968.94  2970.11
eigval :     2970.74  2972.81  2974.36  2975.58  2976.82  2978.18
eigval :     2980.28  2981.35  2986.02  2986.67  2987.94  2989.49
eigval :     2993.77  3013.05  3018.52  3025.57  3027.04  3029.80
eigval :     3030.76  3035.71  3037.47

   temp. (K)  partition function   enthalpy   heat capacity  entropy
                                   cal/mol     cal/K/mol   cal/K/mol   J/K/mol
 298.15  VIB  0.110E+10            10748.970     61.453     69.570
         ROT  0.458E+07              888.752      2.981     33.458
         INT  0.503E+16            11637.722     64.434    103.028
         TR   0.300E+28             1481.254      4.968     41.945
         TOT                       13118.9761    69.4020   144.9727   606.5659

       T/K    H(0)-H(T)+PV         H(T)/Eh          T*S/Eh         G(T)/Eh
   ------------------------------------------------------------------------
    298.15    0.209064E-01    0.462720E+00    0.688812E-01    0.393839E+00
   ------------------------------------------------------------------------

         :::::::::::::::::::::::::::::::::::::::::::::::::::::
         ::                  THERMODYNAMIC                  ::
         :::::::::::::::::::::::::::::::::::::::::::::::::::::
         :: total free energy         -48.076058058376 Eh   ::
         ::.................................................::
         :: total energy              -48.469896659890 Eh   ::
         :: zero point energy           0.441813404647 Eh   ::
         :: G(RRHO) w/o ZPVE           -0.047974803132 Eh   ::
         :: G(RRHO) contrib.            0.393838601514 Eh   ::
         :::::::::::::::::::::::::::::::::::::::::::::::::::::

           -------------------------------------------------
          | TOTAL ENERGY              -48.469896659890 Eh   |
          | TOTAL ENTHALPY            -48.007176836152 Eh   |
          | TOTAL FREE ENERGY         -48.076058058376 Eh   |
          | GRADIENT NORM               0.000267618340 Eh/α |
          | HOMO-LUMO GAP              12.672318910947 eV   |
           -------------------------------------------------

 * finished run on 2024/04/23 at 12:10:43.802
