   * xtb version 6.6.1 (8d0f1dd) compiled by 'stahn@M-Bot' on 2023-08-01
          program call               : xtb folded.xyz --gfn 2 --ohess -P 4

   ID    Z sym.   atoms
    1    6 C      1-7
    2    1 H      8-23

          :  Hamiltonian                  GFN2-xTB          :
 * total energy  :   -23.1548918 Eh     change       -0.1134026E-10 Eh
 * total energy  :   -23.1562051 Eh     change       -0.1313319E-02 Eh
 * total energy  :   -23.1563821 Eh     change       -0.1769859E-03 Eh
 * total energy  :   -23.1563965 Eh     change       -0.1444874E-04 Eh
 * total energy  :   -23.1564155 Eh     change       -0.1900013E-04 Eh
 * total energy  :   -23.1564235 Eh     change       -0.7943270E-05 Eh
 * total energy  :   -23.1564384 Eh     change       -0.1496489E-04 Eh
 * total energy  :   -23.1564452 Eh     change       -0.6798061E-05 Eh
 * total energy  :   -23.1564643 Eh     change       -0.1906152E-04 Eh
 * total energy  :   -23.1564830 Eh     change       -0.1872396E-04 Eh
 * total energy  :   -23.1564859 Eh     change       -0.2893626E-05 Eh
   *** GEOMETRY OPTIMIZATION CONVERGED AFTER 11 ITERATIONS ***

 final structure:
================
23
 xtb: 6.6.1 (8d0f1dd)
C           -3.08187248771695        0.97019489155423        0.12820471774660
C           -1.85160374359966        0.28676921336550       -0.45674773710106
C           -1.15495351283488       -0.59566636249258        0.57657744864444
C            0.00021936879954       -1.41667543002101        0.00094294962023
C            1.15444932457567       -0.59526423322320       -0.57597429675049
C            1.85179288779027        0.28760839464181        0.45648242843820
C            3.08037491687913        0.97253542661957       -0.13025337605651
H           -3.80112407309678        0.23153447987085        0.47604665850625
H           -2.80367699549163        1.59829756795971        0.97207409144204
H           -3.56605530039563        1.59478547980164       -0.61913601519338
H           -2.14851513517049       -0.32558571156567       -1.31158613797713
H           -1.16038083345924        1.05021911765830       -0.81711812570805
H           -0.79397295160675        0.02488706696347        1.39858384199076
H           -1.88933523512092       -1.29002418162143        0.99369624805394
H           -0.39107321446162       -2.06421992243726       -0.78817928829831
H            0.39223485692858       -2.06256870240724        0.79106235225676
H            0.79237978986501        0.02496174931686       -1.39773534503267
H            1.88875285835817       -1.28934355018277       -0.99369380809949
H            1.16036955091185        1.05016526736677        0.81835062036195
H            2.15078315258455       -0.32471999752783        1.31062134725421
H            2.79972189169903        1.60294547411749       -0.97159904762145
H            3.79845457247769        0.23472360977278       -0.48232742909514
H            3.56692531208502        1.59501435246999        0.61729190261829
           -------------------------------------------------
          |                Final Singlepoint                |
           -------------------------------------------------

          :  Hamiltonian                  GFN2-xTB          :
         :: gradient norm              0.000181879332 Eh/a0 ::
         :: HOMO-LUMO gap             13.335284736280 eV    ::
         :: SCC energy               -23.507261636149 Eh    ::
         :: -> dispersion             -0.013476271414 Eh    ::
         :: repulsion energy           0.350723006497 Eh    ::

    * Orbital Energies and Occupations

         #    Occupation            Energy/Eh            Energy/eV
      -------------------------------------------------------------
         1        2.0000           -0.6218801             -16.9222
       ...           ...                  ...                  ...
        10        2.0000           -0.4956359             -13.4869
        11        2.0000           -0.4876111             -13.2686
        12        2.0000           -0.4873844             -13.2624
        13        2.0000           -0.4778048             -13.0017
        14        2.0000           -0.4561173             -12.4116
        15        2.0000           -0.4545015             -12.3676
        16        2.0000           -0.4513757             -12.2826
        17        2.0000           -0.4425590             -12.0426
        18        2.0000           -0.4292508             -11.6805
        19        2.0000           -0.4277916             -11.6408
        20        2.0000           -0.4195700             -11.4171
        21        2.0000           -0.4155749             -11.3084
        22        2.0000           -0.4115969             -11.2001 (HOMO)
        23                          0.0784658               2.1352 (LUMO)
        24                          0.0826067               2.2478
        25                          0.1090030               2.9661
        26                          0.1226101               3.3364
        27                          0.1273371               3.4650
        28                          0.1347484               3.6667
        29                          0.1499461               4.0802
        30                          0.1584059               4.3104
        31                          0.1728930               4.7047
        32                          0.1785049               4.8574
        33                          0.1856032               5.0505
       ...                                ...                  ...
        44                          0.3155876               8.5876
      -------------------------------------------------------------
                  HL-Gap            0.4900627 Eh           13.3353 eV

     #   Z          covCN         q      C6AA      α(0)
     1   6 C        3.752    -0.102    22.502     6.765
     2   6 C        3.800    -0.053    21.517     6.604
     3   6 C        3.802    -0.059    21.628     6.621
     4   6 C        3.801    -0.058    21.616     6.619
     5   6 C        3.802    -0.059    21.628     6.621
     6   6 C        3.800    -0.053    21.517     6.604
     7   6 C        3.752    -0.102    22.502     6.765
     8   1 H        0.925     0.032     2.563     2.503
     9   1 H        0.925     0.032     2.559     2.502
    10   1 H        0.925     0.032     2.564     2.504
    11   1 H        0.924     0.028     2.616     2.529
    12   1 H        0.924     0.032     2.563     2.504
    13   1 H        0.924     0.031     2.568     2.506
    14   1 H        0.924     0.028     2.616     2.529
    15   1 H        0.924     0.028     2.619     2.531
    16   1 H        0.924     0.028     2.619     2.531
    17   1 H        0.924     0.031     2.567     2.506
    18   1 H        0.924     0.028     2.616     2.529
    19   1 H        0.924     0.032     2.563     2.504
    20   1 H        0.924     0.028     2.616     2.529
    21   1 H        0.925     0.032     2.560     2.502
    22   1 H        0.925     0.032     2.562     2.503
    23   1 H        0.925     0.032     2.564     2.504

Wiberg/Mayer (AO) data.
largest (>0.10) Wiberg bond orders for each atom

     #   Z sym  total        # sym  WBO       # sym  WBO       # sym  WBO
 ---------------------------------------------------------------------------
     1   6 C    3.997 --     2 C    1.019     9 H    0.988     8 H    0.988
                            10 H    0.988
     2   6 C    3.998 --     1 C    1.019     3 C    1.009    11 H    0.978
                            12 H    0.977
     3   6 C    3.997 --     2 C    1.009     4 C    1.007    14 H    0.977
                            13 H    0.976
     4   6 C    3.998 --     5 C    1.007     3 C    1.007    15 H    0.978
                            16 H    0.978
     5   6 C    3.997 --     6 C    1.009     4 C    1.007    18 H    0.977
                            17 H    0.976
     6   6 C    3.998 --     7 C    1.019     5 C    1.009    20 H    0.978
                            19 H    0.977
     7   6 C    3.997 --     6 C    1.019    21 H    0.988    22 H    0.988
                            23 H    0.988
     8   1 H    0.999 --     1 C    0.988
     9   1 H    0.999 --     1 C    0.988
    10   1 H    0.999 --     1 C    0.988
    11   1 H    0.999 --     2 C    0.978
    12   1 H    0.999 --     2 C    0.977
    13   1 H    0.999 --     3 C    0.976
    14   1 H    0.999 --     3 C    0.977
    15   1 H    0.999 --     4 C    0.978
    16   1 H    0.999 --     4 C    0.978
    17   1 H    0.999 --     5 C    0.976
    18   1 H    0.999 --     5 C    0.977
    19   1 H    0.999 --     6 C    0.977
    20   1 H    0.999 --     6 C    0.978
    21   1 H    0.999 --     7 C    0.988
    22   1 H    0.999 --     7 C    0.988
    23   1 H    0.999 --     7 C    0.988
 ---------------------------------------------------------------------------

molecular dipole:
                 x           y           z       tot (Debye)
 q only:       -0.000       0.010      -0.000
   full:       -0.000       0.006      -0.000       0.016

 projected vibrational frequencies (cm⁻¹)
eigval :       -0.00    -0.00     0.00     0.00     0.00     0.00
eigval :       46.73    69.10    73.59   184.79   208.77   234.71
eigval :      242.71   293.36   302.71   429.66   504.65   757.44
eigval :      789.49   827.82   881.47   907.95   915.77   962.37
eigval :      996.92  1061.20  1068.50  1087.60  1098.08  1146.58
eigval :     1158.42  1161.83  1225.04  1237.48  1268.48  1282.54
eigval :     1289.31  1301.36  1317.00  1363.40  1372.65  1375.73
eigval :     1416.73  1416.94  1489.90  1492.61  1500.26  1501.31
eigval :     1503.77  1505.75  1506.01  1508.65  1509.09  2955.07
eigval :     2956.32  2958.66  2967.67  2970.29  2975.59  2986.30
eigval :     2988.01  2992.68  2995.77  3027.59  3028.31  3030.41
eigval :     3030.97  3036.12  3036.70

   temp. (K)  partition function   enthalpy   heat capacity  entropy
                                   cal/mol     cal/K/mol   cal/K/mol   J/K/mol
 298.15  VIB   865.                 4224.813     26.766     26.487
         ROT  0.196E+06              888.752      2.981     27.198
         INT  0.170E+09             5113.565     29.747     53.685
         TR   0.970E+27             1481.254      4.968     39.706
         TOT                        6594.8189    34.7148    93.3912   390.7487

       T/K    H(0)-H(T)+PV         H(T)/Eh          T*S/Eh         G(T)/Eh
   ------------------------------------------------------------------------
    298.15    0.105095E-01    0.226327E+00    0.443732E-01    0.181953E+00
   ------------------------------------------------------------------------

         :::::::::::::::::::::::::::::::::::::::::::::::::::::
         ::                  THERMODYNAMIC                  ::
         :::::::::::::::::::::::::::::::::::::::::::::::::::::
         :: total free energy         -22.974532543097 Eh   ::
         ::.................................................::
         :: total energy              -23.156485910767 Eh   ::
         :: zero point energy           0.215817019156 Eh   ::
         :: G(RRHO) w/o ZPVE           -0.033863651487 Eh   ::
         :: G(RRHO) contrib.            0.181953367670 Eh   ::
         :::::::::::::::::::::::::::::::::::::::::::::::::::::

           -------------------------------------------------
          | TOTAL ENERGY              -23.156485910767 Eh   |
          | TOTAL ENTHALPY            -22.930159378666 Eh   |
          | TOTAL FREE ENERGY         -22.974532543097 Eh   |
          | GRADIENT NORM               0.000181886512 Eh/α |
          | HOMO-LUMO GAP              13.335284961402 eV   |
           -------------------------------------------------

 * finished run on 2024/04/23 at 12:10:20.592
