   * xtb version 6.6.1 (8d0f1dd) compiled by 'stahn@M-Bot' on 2023-08-01
          program call               : xtb unfolded.xyz --gfn 2 --ohess -P 4

   ID    Z sym.   atoms
    1    6 C      1-11
    2    1 H      12-35

          :  Hamiltonian                  GFN2-xTB          :
 * total energy  :   -35.8126628 Eh     change       -0.1521272E-10 Eh
 * total energy  :   -35.8146096 Eh     change       -0.1946795E-02 Eh
 * total energy  :   -35.8149218 Eh     change       -0.3122428E-03 Eh
 * total energy  :   -35.8149413 Eh     change       -0.1941823E-04 Eh
 * total energy  :   -35.8149544 Eh     change       -0.1311954E-04 Eh
 * total energy  :   -35.8149590 Eh     change       -0.4651536E-05 Eh
   *** GEOMETRY OPTIMIZATION CONVERGED AFTER 6 ITERATIONS ***

 final structure:
================
35
 xtb: 6.6.1 (8d0f1dd)
C           -5.73813050625197        1.17720838795711        0.14048296697460
C           -4.30314375340311        1.07635839975109       -0.36214489027551
C           -3.57430057105030       -0.12992522853858        0.22510783802915
C           -2.13194170269553       -0.21871720805679       -0.26750556399996
C           -1.39855492780438       -1.42158803089084        0.32151252914397
C            0.02929100744059       -1.57646455166410       -0.20410836592189
C            0.96581972654179       -0.46056049630141        0.25328000197208
C            2.39825919885041       -0.68382964400399       -0.22542749013789
C            3.32728770610749        0.44442717694246        0.21582178012208
C            4.75817697388911        0.24179570651022       -0.27558580299946
C            5.67248418050566        1.38114751778642        0.15862193049491
H           -6.29912325880887        0.28404363210168       -0.12598569054868
H           -6.23730762721593        2.03936631871257       -0.29573233214361
H           -5.75613792913243        1.28128774063368        1.22324604615837
H           -4.30480328178497        0.99951062166509       -1.45191798235622
H           -3.76171421389685        1.98745045023918       -0.09673911915728
H           -4.10896115047853       -1.04311100496904       -0.04732740300037
H           -3.57895706592030       -0.05853341606709        1.31547848878506
H           -1.61153715411672        0.70084369325717        0.00506970875302
H           -2.12703242519093       -0.29285162255878       -1.35771229068218
H           -1.96088777374786       -2.32682704418313        0.07880273841374
H           -1.37369994047069       -1.33214421147599        1.41017681810182
H            0.00992277086442       -1.60667512182163       -1.29613189175280
H            0.42877413887788       -2.53238621573453        0.14403713181598
H            0.95441387324134       -0.40542879161453        1.34448485141207
H            0.61354572778389        0.49781761373322       -0.13148932464317
H            2.76961501061792       -1.63369569814731        0.16676697588616
H            2.40680266479826       -0.75260939988729       -1.31597460046222
H            2.94701502640134        1.39415956344799       -0.16837571256635
H            3.32598046343316        0.50680517727032        1.30672804366163
H            5.14355699218455       -0.70278254802149        0.11502282790391
H            4.75765798005253        0.17238089588883       -1.36583825594503
H            5.31219065151044        2.32916691703003       -0.23518557971953
H            6.68504797361564        1.22110089623057       -0.20431949359561
H            5.70350321525296        1.45238252477891        1.24375311227919
           -------------------------------------------------
          |                Final Singlepoint                |
           -------------------------------------------------

          :  Hamiltonian                  GFN2-xTB          :
         :: gradient norm              0.000518174549 Eh/a0 ::
         :: HOMO-LUMO gap             12.486482921794 eV    ::
         :: SCC energy               -36.352752389742 Eh    ::
         :: -> dispersion             -0.021875961112 Eh    ::
         :: repulsion energy           0.537939242700 Eh    ::

    * Orbital Energies and Occupations

         #    Occupation            Energy/Eh            Energy/eV
      -------------------------------------------------------------
         1        2.0000           -0.6230288             -16.9535
       ...           ...                  ...                  ...
        22        2.0000           -0.4630484             -12.6002
        23        2.0000           -0.4516534             -12.2901
        24        2.0000           -0.4478481             -12.1866
        25        2.0000           -0.4416463             -12.0178
        26        2.0000           -0.4365362             -11.8788
        27        2.0000           -0.4326580             -11.7732
        28        2.0000           -0.4290869             -11.6760
        29        2.0000           -0.4267630             -11.6128
        30        2.0000           -0.4218923             -11.4803
        31        2.0000           -0.4187352             -11.3944
        32        2.0000           -0.4178156             -11.3693
        33        2.0000           -0.4129543             -11.2371
        34        2.0000           -0.4113386             -11.1931 (HOMO)
        35                          0.0475312               1.2934 (LUMO)
        36                          0.0647661               1.7624
        37                          0.1081284               2.9423
        38                          0.1105760               3.0089
        39                          0.1149089               3.1268
        40                          0.1198751               3.2620
        41                          0.1295801               3.5261
        42                          0.1318448               3.5877
        43                          0.1419276               3.8620
        44                          0.1471790               4.0049
        45                          0.1495989               4.0708
       ...                                ...                  ...
        68                          0.3264806               8.8840
      -------------------------------------------------------------
                  HL-Gap            0.4588698 Eh           12.4865 eV

     #   Z          covCN         q      C6AA      α(0)
     1   6 C        3.752    -0.102    22.510     6.766
     2   6 C        3.801    -0.053    21.521     6.605
     3   6 C        3.803    -0.059    21.635     6.622
     4   6 C        3.802    -0.059    21.632     6.622
     5   6 C        3.802    -0.058    21.615     6.619
     6   6 C        3.802    -0.058    21.618     6.620
     7   6 C        3.803    -0.059    21.627     6.621
     8   6 C        3.803    -0.058    21.624     6.620
     9   6 C        3.803    -0.059    21.631     6.621
    10   6 C        3.801    -0.053    21.523     6.605
    11   6 C        3.752    -0.102    22.510     6.766
    12   1 H        0.925     0.033     2.543     2.494
    13   1 H        0.925     0.032     2.552     2.498
    14   1 H        0.925     0.033     2.543     2.494
    15   1 H        0.924     0.028     2.610     2.527
    16   1 H        0.924     0.028     2.611     2.527
    17   1 H        0.924     0.029     2.605     2.524
    18   1 H        0.924     0.029     2.598     2.520
    19   1 H        0.924     0.031     2.573     2.509
    20   1 H        0.924     0.029     2.603     2.523
    21   1 H        0.924     0.028     2.610     2.526
    22   1 H        0.924     0.029     2.594     2.519
    23   1 H        0.924     0.029     2.595     2.519
    24   1 H        0.924     0.028     2.610     2.526
    25   1 H        0.924     0.029     2.596     2.520
    26   1 H        0.924     0.031     2.568     2.506
    27   1 H        0.924     0.028     2.621     2.532
    28   1 H        0.924     0.028     2.615     2.529
    29   1 H        0.924     0.030     2.593     2.518
    30   1 H        0.924     0.030     2.593     2.518
    31   1 H        0.924     0.028     2.610     2.527
    32   1 H        0.924     0.028     2.609     2.526
    33   1 H        0.925     0.033     2.542     2.493
    34   1 H        0.925     0.033     2.551     2.498
    35   1 H        0.925     0.033     2.542     2.493

Wiberg/Mayer (AO) data.
largest (>0.10) Wiberg bond orders for each atom

     #   Z sym  total        # sym  WBO       # sym  WBO       # sym  WBO
 ---------------------------------------------------------------------------
     1   6 C    3.997 --     2 C    1.019    14 H    0.988    12 H    0.988
                            13 H    0.988
     2   6 C    3.998 --     1 C    1.019     3 C    1.008    15 H    0.979
                            16 H    0.979
     3   6 C    3.997 --     2 C    1.008     4 C    1.007    18 H    0.978
                            17 H    0.978
     4   6 C    3.998 --     5 C    1.008     3 C    1.007    20 H    0.977
                            19 H    0.975
     5   6 C    3.997 --     4 C    1.008     6 C    1.006    22 H    0.977
                            21 H    0.977
     6   6 C    3.997 --     7 C    1.008     5 C    1.006    23 H    0.977
                            24 H    0.977
     7   6 C    3.997 --     6 C    1.008     8 C    1.007    25 H    0.977
                            26 H    0.975
     8   6 C    3.997 --     9 C    1.007     7 C    1.007    27 H    0.978
                            28 H    0.978
     9   6 C    3.997 --    10 C    1.008     8 C    1.007    30 H    0.978
                            29 H    0.977
    10   6 C    3.998 --    11 C    1.019     9 C    1.008    31 H    0.979
                            32 H    0.979
    11   6 C    3.997 --    10 C    1.019    35 H    0.988    33 H    0.988
                            34 H    0.988
    12   1 H    0.999 --     1 C    0.988
    13   1 H    0.999 --     1 C    0.988
    14   1 H    0.999 --     1 C    0.988
    15   1 H    0.999 --     2 C    0.979
    16   1 H    0.999 --     2 C    0.979
    17   1 H    0.999 --     3 C    0.978
    18   1 H    0.999 --     3 C    0.978
    19   1 H    0.999 --     4 C    0.975
    20   1 H    0.999 --     4 C    0.977
    21   1 H    0.999 --     5 C    0.977
    22   1 H    0.999 --     5 C    0.977
    23   1 H    0.999 --     6 C    0.977
    24   1 H    0.999 --     6 C    0.977
    25   1 H    0.999 --     7 C    0.977
    26   1 H    0.999 --     7 C    0.975
    27   1 H    0.999 --     8 C    0.978
    28   1 H    0.999 --     8 C    0.978
    29   1 H    0.999 --     9 C    0.977
    30   1 H    0.999 --     9 C    0.978
    31   1 H    0.999 --    10 C    0.979
    32   1 H    0.999 --    10 C    0.979
    33   1 H    0.999 --    11 C    0.988
    34   1 H    0.999 --    11 C    0.988
    35   1 H    0.999 --    11 C    0.988
 ---------------------------------------------------------------------------

molecular dipole:
                 x           y           z       tot (Debye)
 q only:       -0.003       0.015       0.006
   full:       -0.003       0.011       0.005       0.031

 projected vibrational frequencies (cm⁻¹)
eigval :       -0.00     0.00     0.00     0.00     0.00     0.00
eigval :       33.31    34.35    35.28    70.08    86.82   109.09
eigval :      116.49   127.12   130.07   162.91   231.12   233.14
eigval :      238.17   255.27   324.38   380.37   420.06   450.11
eigval :      529.33   765.39   770.81   778.68   793.62   825.38
eigval :      865.76   903.42   936.13   942.43   960.59   973.17
eigval :     1009.38  1027.44  1056.29  1078.89  1093.25  1102.53
eigval :     1103.57  1112.84  1122.88  1130.60  1144.78  1175.89
eigval :     1208.53  1217.71  1244.79  1248.34  1260.20  1268.67
eigval :     1277.68  1283.44  1290.16  1291.27  1297.15  1307.06
eigval :     1324.72  1347.56  1367.33  1375.23  1378.42  1380.76
eigval :     1415.90  1415.94  1491.12  1491.18  1495.86  1497.13
eigval :     1497.71  1499.32  1500.63  1502.50  1504.51  1504.68
eigval :     1504.71  1507.88  1508.00  2953.98  2955.43  2956.94
eigval :     2957.30  2960.67  2965.68  2969.03  2972.80  2973.52
eigval :     2974.54  2975.25  2976.81  2978.74  2980.67  2983.86
eigval :     2984.75  2990.61  2996.95  3030.19  3030.68  3032.75
eigval :     3032.96  3038.17  3038.51

   temp. (K)  partition function   enthalpy   heat capacity  entropy
                                   cal/mol     cal/K/mol   cal/K/mol   J/K/mol
 298.15  VIB  0.181E+07             7746.157     44.327     50.254
         ROT  0.232E+07              888.752      2.981     32.113
         INT  0.421E+13             8634.910     47.308     82.367
         TR   0.189E+28             1481.254      4.968     41.031
         TOT                       10116.1635    52.2762   123.3975   516.2950

       T/K    H(0)-H(T)+PV         H(T)/Eh          T*S/Eh         G(T)/Eh
   ------------------------------------------------------------------------
    298.15    0.161211E-01    0.344310E+00    0.586301E-01    0.285679E+00
   ------------------------------------------------------------------------

         :::::::::::::::::::::::::::::::::::::::::::::::::::::
         ::                  THERMODYNAMIC                  ::
         :::::::::::::::::::::::::::::::::::::::::::::::::::::
         :: total free energy         -35.529279580138 Eh   ::
         ::.................................................::
         :: total energy              -35.814959036635 Eh   ::
         :: zero point energy           0.328188440993 Eh   ::
         :: G(RRHO) w/o ZPVE           -0.042508984496 Eh   ::
         :: G(RRHO) contrib.            0.285679456497 Eh   ::
         :::::::::::::::::::::::::::::::::::::::::::::::::::::

           -------------------------------------------------
          | TOTAL ENERGY              -35.814959036635 Eh   |
          | TOTAL ENTHALPY            -35.470649462877 Eh   |
          | TOTAL FREE ENERGY         -35.529279580138 Eh   |
          | GRADIENT NORM               0.000518172057 Eh/α |
          | HOMO-LUMO GAP              12.486482830567 eV   |
           -------------------------------------------------

 * finished run on 2024/04/23 at 12:10:28.404
