   * xtb version 6.6.1 (8d0f1dd) compiled by 'stahn@M-Bot' on 2023-08-01
          program call               : xtb folded.xyz --gfn 2 --ohess -P 4

   ID    Z sym.   atoms
    1    6 C      1-9
    2    1 H      10-29

          :  Hamiltonian                  GFN2-xTB          :
 * total energy  :   -29.4823121 Eh     change       -0.2272316E-10 Eh
 * total energy  :   -29.4839996 Eh     change       -0.1687505E-02 Eh
 * total energy  :   -29.4842390 Eh     change       -0.2393725E-03 Eh
 * total energy  :   -29.4842547 Eh     change       -0.1571503E-04 Eh
 * total energy  :   -29.4842795 Eh     change       -0.2480168E-04 Eh
 * total energy  :   -29.4842915 Eh     change       -0.1198065E-04 Eh
 * total energy  :   -29.4843150 Eh     change       -0.2351614E-04 Eh
 * total energy  :   -29.4843222 Eh     change       -0.7159927E-05 Eh
 * total energy  :   -29.4843401 Eh     change       -0.1797733E-04 Eh
 * total energy  :   -29.4843505 Eh     change       -0.1038297E-04 Eh
 * total energy  :   -29.4843577 Eh     change       -0.7159727E-05 Eh
 * total energy  :   -29.4843654 Eh     change       -0.7749250E-05 Eh
 * total energy  :   -29.4843748 Eh     change       -0.9333920E-05 Eh
 * total energy  :   -29.4843818 Eh     change       -0.7031967E-05 Eh
 * total energy  :   -29.4843854 Eh     change       -0.3640589E-05 Eh
   *** GEOMETRY OPTIMIZATION CONVERGED AFTER 15 ITERATIONS ***

 final structure:
================
29
 xtb: 6.6.1 (8d0f1dd)
C           -3.45162709611921        1.49237490737930        0.81979815727877
C           -2.60374895742862        0.67801472907727       -0.15011758982265
C           -2.11220025644665       -0.61983317745208        0.48663358547832
C           -1.38285865833982       -1.54378040762153       -0.49044546077182
C           -0.12390204136929       -0.95235493171023       -1.12709569983160
C            0.95840496449286       -0.59282815709824       -0.11180227502684
C            2.24225669714406       -0.13174400491593       -0.79833635876171
C            3.38282006486494        0.15372056646687        0.17924188304414
C            3.11638533505817        1.35247995749931        1.08270207925159
H           -3.78310448328146        2.41860755805032        0.35575687254941
H           -2.87845492827117        1.74128540260316        1.71045308529298
H           -4.33020838333716        0.92894606158992        1.12678501143410
H           -1.75101867033212        1.28048105285793       -0.46679697121685
H           -3.19438356293229        0.44197742068705       -1.03843081945753
H           -1.46108410222761       -0.38512817739193        1.33058500100208
H           -2.97430153083272       -1.16161910044662        0.88504103450392
H           -2.07502912327714       -1.82305713792690       -1.28924005106927
H           -1.10810857591779       -2.45911236584302        0.04035659330536
H           -0.38478707656603       -0.06633685286120       -1.70859155708950
H            0.28043694646455       -1.68954754580521       -1.82629184464984
H            1.17527394025381       -1.46657390185355        0.50791181900839
H            0.59368661473778        0.20035537081122        0.54034114750525
H            2.03573462754707        0.76809444563967       -1.38313624860745
H            2.56685478828742       -0.90864089379365       -1.49566669987001
H            3.55860213956799       -0.73161168450946        0.79475992510575
H            4.29350442117960        0.34198649767045       -0.39475061470797
H            2.28398492292095        1.15907069803007        1.75417683117954
H            2.88253308452350        2.23281330274983        0.48753773264510
H            3.99361189963655        1.57128936811737        1.68762443229841
           -------------------------------------------------
          |                Final Singlepoint                |
           -------------------------------------------------

          :  Hamiltonian                  GFN2-xTB          :
         :: gradient norm              0.000284770200 Eh/a0 ::
         :: HOMO-LUMO gap             12.951558405299 eV    ::
         :: SCC energy               -29.928574203696 Eh    ::
         :: -> dispersion             -0.018312416025 Eh    ::
         :: repulsion energy           0.444056910682 Eh    ::

    * Orbital Energies and Occupations

         #    Occupation            Energy/Eh            Energy/eV
      -------------------------------------------------------------
         1        2.0000           -0.6223856             -16.9360
       ...           ...                  ...                  ...
        16        2.0000           -0.4781063             -13.0099
        17        2.0000           -0.4680308             -12.7358
        18        2.0000           -0.4604780             -12.5302
        19        2.0000           -0.4541759             -12.3588
        20        2.0000           -0.4485309             -12.2051
        21        2.0000           -0.4414707             -12.0130
        22        2.0000           -0.4375035             -11.9051
        23        2.0000           -0.4283645             -11.6564
        24        2.0000           -0.4242081             -11.5433
        25        2.0000           -0.4221756             -11.4880
        26        2.0000           -0.4153947             -11.3035
        27        2.0000           -0.4128470             -11.2341
        28        2.0000           -0.4106090             -11.1732 (HOMO)
        29                          0.0653520               1.7783 (LUMO)
        30                          0.0810701               2.2060
        31                          0.1018548               2.7716
        32                          0.1068569               2.9077
        33                          0.1222462               3.3265
        34                          0.1251482               3.4055
        35                          0.1322964               3.6000
        36                          0.1389919               3.7822
        37                          0.1490354               4.0555
        38                          0.1529211               4.1612
        39                          0.1592361               4.3330
       ...                                ...                  ...
        56                          0.3228132               8.7842
      -------------------------------------------------------------
                  HL-Gap            0.4759610 Eh           12.9516 eV

     #   Z          covCN         q      C6AA      α(0)
     1   6 C        3.752    -0.102    22.501     6.764
     2   6 C        3.800    -0.053    21.518     6.605
     3   6 C        3.802    -0.058    21.621     6.620
     4   6 C        3.801    -0.058    21.609     6.618
     5   6 C        3.802    -0.058    21.614     6.619
     6   6 C        3.802    -0.058    21.624     6.620
     7   6 C        3.802    -0.058    21.612     6.619
     8   6 C        3.800    -0.052    21.516     6.604
     9   6 C        3.751    -0.101    22.495     6.764
    10   1 H        0.925     0.031     2.566     2.505
    11   1 H        0.925     0.032     2.560     2.502
    12   1 H        0.925     0.032     2.564     2.504
    13   1 H        0.924     0.032     2.557     2.501
    14   1 H        0.924     0.028     2.617     2.530
    15   1 H        0.924     0.031     2.572     2.508
    16   1 H        0.924     0.028     2.618     2.530
    17   1 H        0.924     0.027     2.623     2.533
    18   1 H        0.924     0.028     2.615     2.529
    19   1 H        0.924     0.030     2.584     2.514
    20   1 H        0.924     0.026     2.647     2.544
    21   1 H        0.924     0.028     2.613     2.528
    22   1 H        0.925     0.036     2.500     2.473
    23   1 H        0.924     0.029     2.605     2.524
    24   1 H        0.924     0.026     2.650     2.546
    25   1 H        0.924     0.029     2.604     2.523
    26   1 H        0.924     0.027     2.629     2.535
    27   1 H        0.925     0.034     2.528     2.486
    28   1 H        0.925     0.033     2.539     2.492
    29   1 H        0.925     0.030     2.581     2.512

Wiberg/Mayer (AO) data.
largest (>0.10) Wiberg bond orders for each atom

     #   Z sym  total        # sym  WBO       # sym  WBO       # sym  WBO
 ---------------------------------------------------------------------------
     1   6 C    3.997 --     2 C    1.019    11 H    0.988    12 H    0.988
                            10 H    0.988
     2   6 C    3.998 --     1 C    1.019     3 C    1.009    14 H    0.978
                            13 H    0.977
     3   6 C    3.997 --     2 C    1.009     4 C    1.007    16 H    0.977
                            15 H    0.976
     4   6 C    3.997 --     3 C    1.007     5 C    1.007    17 H    0.978
                            18 H    0.978
     5   6 C    3.997 --     6 C    1.008     4 C    1.007    20 H    0.977
                            19 H    0.976
     6   6 C    3.998 --     5 C    1.008     7 C    1.008    21 H    0.977
                            22 H    0.973
     7   6 C    3.998 --     6 C    1.008     8 C    1.007    23 H    0.978
                            24 H    0.977
     8   6 C    3.998 --     9 C    1.020     7 C    1.007    26 H    0.979
                            25 H    0.978
     9   6 C    3.997 --     8 C    1.020    28 H    0.988    29 H    0.988
                            27 H    0.986
    10   1 H    0.999 --     1 C    0.988
    11   1 H    0.999 --     1 C    0.988
    12   1 H    0.999 --     1 C    0.988
    13   1 H    0.999 --     2 C    0.977
    14   1 H    0.999 --     2 C    0.978
    15   1 H    0.999 --     3 C    0.976
    16   1 H    0.999 --     3 C    0.977
    17   1 H    0.999 --     4 C    0.978
    18   1 H    0.999 --     4 C    0.978
    19   1 H    0.999 --     5 C    0.976
    20   1 H    0.999 --     5 C    0.977
    21   1 H    0.999 --     6 C    0.977
    22   1 H    0.999 --     6 C    0.973
    23   1 H    0.999 --     7 C    0.978
    24   1 H    0.999 --     7 C    0.977
    25   1 H    0.999 --     8 C    0.978
    26   1 H    0.999 --     8 C    0.979
    27   1 H    0.999 --     9 C    0.986
    28   1 H    0.999 --     9 C    0.988
    29   1 H    0.999 --     9 C    0.988
 ---------------------------------------------------------------------------

molecular dipole:
                 x           y           z       tot (Debye)
 q only:       -0.002       0.019       0.017
   full:       -0.003       0.013       0.012       0.046

 projected vibrational frequencies (cm⁻¹)
eigval :       -0.00    -0.00    -0.00    -0.00     0.00     0.00
eigval :       26.93    41.07    68.70    88.91   106.15   146.00
eigval :      202.81   221.05   241.76   270.11   290.80   321.41
eigval :      414.19   456.95   502.93   757.72   779.77   806.25
eigval :      822.52   880.10   893.71   928.63   933.64   975.62
eigval :     1002.17  1017.70  1057.40  1073.89  1091.10  1102.92
eigval :     1133.53  1147.26  1154.12  1161.46  1193.51  1225.86
eigval :     1253.74  1254.98  1281.29  1288.42  1288.94  1291.69
eigval :     1311.50  1352.76  1355.47  1363.57  1374.49  1378.10
eigval :     1415.75  1416.70  1489.72  1490.38  1492.61  1496.96
eigval :     1498.71  1502.18  1505.46  1506.04  1507.77  1508.90
eigval :     1511.51  2954.46  2954.92  2955.45  2957.98  2961.43
eigval :     2967.20  2970.12  2975.19  2976.16  2980.22  2987.87
eigval :     2988.54  2995.07  3005.49  3029.22  3029.96  3031.29
eigval :     3033.28  3037.05  3045.72

   temp. (K)  partition function   enthalpy   heat capacity  entropy
                                   cal/mol     cal/K/mol   cal/K/mol   J/K/mol
 298.15  VIB  0.339E+05             5879.994     35.313     37.402
         ROT  0.100E+07              888.752      2.981     30.436
         INT  0.339E+11             6768.746     38.294     67.838
         TR   0.141E+28             1481.254      4.968     40.441
         TOT                        8250.0001    43.2622   108.2795   453.0412

       T/K    H(0)-H(T)+PV         H(T)/Eh          T*S/Eh         G(T)/Eh
   ------------------------------------------------------------------------
    298.15    0.131472E-01    0.285418E+00    0.514471E-01    0.233971E+00
   ------------------------------------------------------------------------

         :::::::::::::::::::::::::::::::::::::::::::::::::::::
         ::                  THERMODYNAMIC                  ::
         :::::::::::::::::::::::::::::::::::::::::::::::::::::
         :: total free energy         -29.250414780123 Eh   ::
         ::.................................................::
         :: total energy              -29.484385441935 Eh   ::
         :: zero point energy           0.272270512044 Eh   ::
         :: G(RRHO) w/o ZPVE           -0.038299850233 Eh   ::
         :: G(RRHO) contrib.            0.233970661811 Eh   ::
         :::::::::::::::::::::::::::::::::::::::::::::::::::::

           -------------------------------------------------
          | TOTAL ENERGY              -29.484385441935 Eh   |
          | TOTAL ENTHALPY            -29.198967717882 Eh   |
          | TOTAL FREE ENERGY         -29.250414780123 Eh   |
          | GRADIENT NORM               0.000284772056 Eh/α |
          | HOMO-LUMO GAP              12.951558181771 eV   |
           -------------------------------------------------

 * finished run on 2024/04/20 at 10:58:34.505
