   * xtb version 6.6.1 (8d0f1dd) compiled by 'stahn@M-Bot' on 2023-08-01
          program call               : xtb 1.xyz --gfn 2 --ohess -P 4

   ID    Z sym.   atoms
    1    6 C      1-4
    2    1 H      5-14

          :  Hamiltonian                  GFN2-xTB          :
 * total energy  :   -13.6643538 Eh     change       -0.7061018E-11 Eh
 * total energy  :   -13.6650496 Eh     change       -0.6958227E-03 Eh
 * total energy  :   -13.6651241 Eh     change       -0.7451990E-04 Eh
 * total energy  :   -13.6651275 Eh     change       -0.3343316E-05 Eh
   *** GEOMETRY OPTIMIZATION CONVERGED AFTER 4 ITERATIONS ***

 final structure:
================
14
 xtb: 6.6.1 (8d0f1dd)
C           -1.93751213197670       -0.13495799389534       -0.00042598887868
C           -0.56110385634269        0.51760978509265        0.00052853678937
C            0.56114145533943       -0.51762057854740        0.00054008660509
C            1.93748995352666        0.13507168418186       -0.00039000364241
H           -2.06265581575264       -0.76068995271918       -0.88170231818076
H           -2.06473566474859       -0.75909382014069        0.88168043803291
H           -2.72027350112991        0.62019174706628       -0.00204300349609
H           -0.46124340609977        1.15549407117553       -0.88090455550247
H           -0.46207940359789        1.15471587878310        0.88260846812776
H            0.46136143838758       -1.15549260852214       -0.88090748152185
H            0.46211342813849       -1.15474891530490        0.88260565657369
H            2.06380007139562        0.76089978461387        0.88064849421733
H            2.72034970935171       -0.61997807426511        0.00015767660822
H            2.06338372350868        0.75914699248148       -0.88273100573210
           -------------------------------------------------
          |                Final Singlepoint                |
           -------------------------------------------------

          :  Hamiltonian                  GFN2-xTB          :
         :: gradient norm              0.000436165207 Eh/a0 ::
         :: HOMO-LUMO gap             13.811041270281 eV    ::
         :: SCC energy               -13.876095911139 Eh    ::
         :: -> dispersion             -0.006049478541 Eh    ::
         :: repulsion energy           0.210964567660 Eh    ::

    * Orbital Energies and Occupations

         #    Occupation            Energy/Eh            Energy/eV
      -------------------------------------------------------------
         1        2.0000           -0.6180075             -16.8168
         2        2.0000           -0.5990135             -16.3000
         3        2.0000           -0.5679301             -15.4542
         4        2.0000           -0.5524007             -15.0316
         5        2.0000           -0.5138779             -13.9833
         6        2.0000           -0.4918715             -13.3845
         7        2.0000           -0.4879074             -13.2766
         8        2.0000           -0.4790049             -13.0344
         9        2.0000           -0.4546562             -12.3718
        10        2.0000           -0.4394981             -11.9594
        11        2.0000           -0.4367632             -11.8849
        12        2.0000           -0.4257616             -11.5856
        13        2.0000           -0.4195550             -11.4167 (HOMO)
        14                          0.0879914               2.3944 (LUMO)
        15                          0.1268091               3.4507
        16                          0.1277627               3.4766
        17                          0.1527235               4.1558
        18                          0.1628981               4.4327
        19                          0.1838290               5.0022
        20                          0.1937955               5.2734
        21                          0.1970604               5.3623
        22                          0.2247357               6.1154
        23                          0.2548776               6.9356
        24                          0.2646400               7.2012
       ...                                ...                  ...
        26                          0.3115165               8.4768
      -------------------------------------------------------------
                  HL-Gap            0.5075464 Eh           13.8110 eV

     #   Z          covCN         q      C6AA      α(0)
     1   6 C        3.752    -0.102    22.510     6.766
     2   6 C        3.801    -0.053    21.534     6.607
     3   6 C        3.801    -0.053    21.534     6.607
     4   6 C        3.752    -0.102    22.510     6.766
     5   1 H        0.925     0.033     2.550     2.497
     6   1 H        0.925     0.033     2.550     2.497
     7   1 H        0.925     0.032     2.554     2.499
     8   1 H        0.924     0.029     2.600     2.522
     9   1 H        0.924     0.029     2.600     2.522
    10   1 H        0.924     0.029     2.600     2.522
    11   1 H        0.924     0.029     2.600     2.522
    12   1 H        0.925     0.033     2.550     2.497
    13   1 H        0.925     0.032     2.554     2.499
    14   1 H        0.925     0.033     2.550     2.497

Wiberg/Mayer (AO) data.
largest (>0.10) Wiberg bond orders for each atom

     #   Z sym  total        # sym  WBO       # sym  WBO       # sym  WBO
 ---------------------------------------------------------------------------
     1   6 C    3.997 --     2 C    1.019     6 H    0.988     5 H    0.988
                             7 H    0.988
     2   6 C    3.998 --     1 C    1.019     3 C    1.009     9 H    0.979
                             8 H    0.979
     3   6 C    3.998 --     4 C    1.019     2 C    1.009    11 H    0.979
                            10 H    0.979
     4   6 C    3.997 --     3 C    1.019    14 H    0.988    12 H    0.988
                            13 H    0.988
     5   1 H    0.999 --     1 C    0.988
     6   1 H    0.999 --     1 C    0.988
     7   1 H    0.999 --     1 C    0.988
     8   1 H    0.999 --     2 C    0.979
     9   1 H    0.999 --     2 C    0.979
    10   1 H    0.999 --     3 C    0.979
    11   1 H    0.999 --     3 C    0.979
    12   1 H    0.999 --     4 C    0.988
    13   1 H    0.999 --     4 C    0.988
    14   1 H    0.999 --     4 C    0.988
 ---------------------------------------------------------------------------

molecular dipole:
                 x           y           z       tot (Debye)
 q only:       -0.000       0.000      -0.000
   full:        0.000       0.000      -0.000       0.000

 projected vibrational frequencies (cm⁻¹)
eigval :       -0.00    -0.00    -0.00     0.00     0.00     0.00
eigval :      108.40   214.04   246.24   265.30   427.06   776.57
eigval :      847.53   893.60   967.80  1002.58  1075.58  1110.94
eigval :     1164.51  1202.16  1257.86  1285.55  1304.33  1372.46
eigval :     1415.10  1418.54  1497.06  1499.82  1505.20  1505.39
eigval :     1507.88  1508.73  2958.28  2971.70  2976.21  2982.41
eigval :     3027.74  3029.75  3030.18  3032.77  3036.90  3037.61

   temp. (K)  partition function   enthalpy   heat capacity  entropy
                                   cal/mol     cal/K/mol   cal/K/mol   J/K/mol
 298.15  VIB   9.64                 1856.319     13.434     10.708
         ROT  0.251E+05              888.752      2.981     23.115
         INT  0.242E+06             2745.071     16.415     33.822
         TR   0.429E+27             1481.254      4.968     38.083
         TOT                        4226.3252    21.3829    71.9056   300.8531

       T/K    H(0)-H(T)+PV         H(T)/Eh          T*S/Eh         G(T)/Eh
   ------------------------------------------------------------------------
    298.15    0.673508E-02    0.137647E+00    0.341647E-01    0.103483E+00
   ------------------------------------------------------------------------

         :::::::::::::::::::::::::::::::::::::::::::::::::::::
         ::                  THERMODYNAMIC                  ::
         :::::::::::::::::::::::::::::::::::::::::::::::::::::
         :: total free energy         -13.561644904025 Eh   ::
         ::.................................................::
         :: total energy              -13.665127472753 Eh   ::
         :: zero point energy           0.130912174294 Eh   ::
         :: G(RRHO) w/o ZPVE           -0.027429605566 Eh   ::
         :: G(RRHO) contrib.            0.103482568728 Eh   ::
         :::::::::::::::::::::::::::::::::::::::::::::::::::::

           -------------------------------------------------
          | TOTAL ENERGY              -13.665127472753 Eh   |
          | TOTAL ENTHALPY            -13.527480220519 Eh   |
          | TOTAL FREE ENERGY         -13.561644904025 Eh   |
          | GRADIENT NORM               0.000436166969 Eh/α |
          | HOMO-LUMO GAP              13.811041241476 eV   |
           -------------------------------------------------

 * finished run on 2024/04/17 at 11:32:25.860
