   * xtb version 6.6.1 (8d0f1dd) compiled by 'stahn@M-Bot' on 2023-08-01
          program call               : xtb folded.xyz --gfn 2 --ohess -P 4

   ID    Z sym.   atoms
    1    6 C      1-18
    2    1 H      19-56

          :  Hamiltonian                  GFN2-xTB          :
 * total energy  :   -57.9590736 Eh     change       -0.5783107E-10 Eh
 * total energy  :   -57.9623485 Eh     change       -0.3274852E-02 Eh
 * total energy  :   -57.9629160 Eh     change       -0.5675802E-03 Eh
 * total energy  :   -57.9629607 Eh     change       -0.4463366E-04 Eh
 * total energy  :   -57.9630205 Eh     change       -0.5982235E-04 Eh
 * total energy  :   -57.9630466 Eh     change       -0.2604990E-04 Eh
 * total energy  :   -57.9631209 Eh     change       -0.7438446E-04 Eh
 * total energy  :   -57.9631432 Eh     change       -0.2223460E-04 Eh
 * total energy  :   -57.9631735 Eh     change       -0.3031635E-04 Eh
 * total energy  :   -57.9631895 Eh     change       -0.1605842E-04 Eh
 * total energy  :   -57.9631978 Eh     change       -0.8227285E-05 Eh
 * total energy  :   -57.9632042 Eh     change       -0.6403011E-05 Eh
 * total energy  :   -57.9632071 Eh     change       -0.2953474E-05 Eh
   *** GEOMETRY OPTIMIZATION CONVERGED AFTER 13 ITERATIONS ***

 final structure:
================
56
 xtb: 6.6.1 (8d0f1dd)
C            4.41113319600602       -0.07792603067251       -0.06011277996904
C            4.16504822787226       -1.21905601930741       -1.03934156134091
C            3.87516753951504       -2.55232697243611       -0.34824867798364
C            2.62347655279182       -2.56518334937146        0.53049244112725
C            1.33576653081553       -2.28351335978691       -0.23996287605423
C            0.09664261118148       -2.51488494805119        0.62179172497205
C           -1.19048472097086       -2.19969172121930       -0.13595569630513
C           -2.42981852872398       -2.41620044852612        0.72919295004672
C           -3.74596932522858       -2.18868778380933       -0.01866908553210
C           -3.91352429449956       -0.78529403966471       -0.60384743935136
C           -3.99235426824794        0.30640349065023        0.46110245981628
C           -3.98048885593339        1.71885656782210       -0.12597577487826
C           -2.65656874889192        2.12574147150184       -0.77767306270052
C           -1.48406390617116        2.17312468524501        0.19984447475030
C           -0.20527074187913        2.67126682096580       -0.46908662107936
C            0.95389757181220        2.78093153216268        0.51844938970152
C            2.23309831371784        3.27801599229592       -0.15034745497179
C            3.35105121917774        3.51147864912430        0.85826612846995
H            3.50749504070018        0.15847426186863        0.49503179921437
H            5.19197880384892       -0.34587964670408        0.64875814492752
H            4.72491838134163        0.81711093505875       -0.59245547043187
H            5.05282321727770       -1.34720377392565       -1.66401416762402
H            3.33749285541783       -0.95919925450750       -1.70158391704619
H            3.77188658461307       -3.32508548986724       -1.11458469349671
H            4.73557713549801       -2.81774214173456        0.27173961321443
H            2.72976429168450       -1.83877949000184        1.33807225582602
H            2.54504761856022       -3.55273550674721        0.99326099540855
H            1.28999669603320       -2.93400284928623       -1.11703587568164
H            1.33311715940809       -1.25015227396654       -0.59205795543855
H            0.15396143600388       -1.88423334509936        1.51306010550669
H            0.07689787551699       -3.55479328008149        0.95726856806699
H           -1.14924172839513       -1.16225821602007       -0.47144425687287
H           -1.25361360083592       -2.83454283761099       -1.02328762349599
H           -2.37925507308530       -1.76059657891006        1.60060833211497
H           -2.42291023343125       -3.44404768268033        1.10177144709459
H           -4.57412563624827       -2.38930423248334        0.66591706235574
H           -3.81094694469271       -2.91281360498127       -0.83498604536856
H           -3.08564242462856       -0.58387078815605       -1.28246821164791
H           -4.83056974734387       -0.76291197323980       -1.19861172810714
H           -4.91391546906674        0.17226256497302        1.03351777712281
H           -3.16192349733134        0.20661671584781        1.15847794526161
H           -4.77625542580730        1.79920852620714       -0.87102000378977
H           -4.20499526123150        2.43008484505782        0.67318585336221
H           -2.41783168705795        1.44292222341715       -1.59512758940865
H           -2.78425758359119        3.11878269624817       -1.21682363622426
H           -1.29862692525943        1.17908214464558        0.61001173994878
H           -1.73719338616711        2.83405618677398        1.03268034125117
H           -0.38883656839176        3.65169509608392       -0.91581849930364
H            0.07027829978644        1.98931391165467       -1.27779819237984
H            1.13818574911201        1.80432799243840        0.97333051233494
H            0.67648133010090        3.46948999978099        1.32051866557888
H            2.02226778133717        4.21206168615922       -0.67666206435268
H            2.55853197263983        2.54691391038559       -0.89386402585261
H            4.25670013383761        3.84406120132887        0.35622874078286
H            3.05995046222016        4.27246841906662        1.57928768033095
H            3.57701999528352        2.59614311208456        1.40043483810109
           -------------------------------------------------
          |                Final Singlepoint                |
           -------------------------------------------------

          :  Hamiltonian                  GFN2-xTB          :
         :: gradient norm              0.000415710083 Eh/a0 ::
         :: HOMO-LUMO gap             12.399054061356 eV    ::
         :: SCC energy               -58.828297172892 Eh    ::
         :: -> dispersion             -0.043235022822 Eh    ::
         :: repulsion energy           0.864164704750 Eh    ::

    * Orbital Energies and Occupations

         #    Occupation            Energy/Eh            Energy/eV
      -------------------------------------------------------------
         1        2.0000           -0.6238057             -16.9746
       ...           ...                  ...                  ...
        43        2.0000           -0.4335831             -11.7984
        44        2.0000           -0.4295445             -11.6885
        45        2.0000           -0.4253669             -11.5748
        46        2.0000           -0.4250101             -11.5651
        47        2.0000           -0.4234448             -11.5225
        48        2.0000           -0.4191569             -11.4058
        49        2.0000           -0.4183659             -11.3843
        50        2.0000           -0.4167187             -11.3395
        51        2.0000           -0.4153802             -11.3031
        52        2.0000           -0.4133994             -11.2492
        53        2.0000           -0.4115701             -11.1994
        54        2.0000           -0.4092980             -11.1376
        55        2.0000           -0.4060989             -11.0505 (HOMO)
        56                          0.0495580               1.3485 (LUMO)
        57                          0.0512253               1.3939
        58                          0.0764807               2.0811
        59                          0.0887121               2.4140
        60                          0.0966025               2.6287
        61                          0.1028495               2.7987
        62                          0.1057547               2.8777
        63                          0.1075735               2.9272
        64                          0.1120197               3.0482
        65                          0.1156646               3.1474
        66                          0.1230171               3.3475
       ...                                ...                  ...
       110                          0.3440331               9.3616
      -------------------------------------------------------------
                  HL-Gap            0.4556569 Eh           12.3991 eV

     #   Z          covCN         q      C6AA      α(0)
     1   6 C        3.751    -0.100    22.468     6.760
     2   6 C        3.799    -0.052    21.509     6.603
     3   6 C        3.801    -0.057    21.601     6.617
     4   6 C        3.802    -0.057    21.598     6.617
     5   6 C        3.802    -0.057    21.597     6.616
     6   6 C        3.803    -0.057    21.594     6.616
     7   6 C        3.802    -0.058    21.608     6.618
     8   6 C        3.801    -0.056    21.587     6.615
     9   6 C        3.801    -0.057    21.608     6.618
    10   6 C        3.801    -0.059    21.627     6.621
    11   6 C        3.801    -0.059    21.633     6.622
    12   6 C        3.801    -0.058    21.611     6.619
    13   6 C        3.801    -0.056    21.589     6.615
    14   6 C        3.802    -0.057    21.601     6.617
    15   6 C        3.803    -0.057    21.595     6.616
    16   6 C        3.803    -0.057    21.598     6.616
    17   6 C        3.801    -0.053    21.521     6.605
    18   6 C        3.752    -0.102    22.510     6.766
    19   1 H        0.925     0.037     2.489     2.467
    20   1 H        0.925     0.031     2.579     2.511
    21   1 H        0.925     0.032     2.563     2.504
    22   1 H        0.924     0.025     2.657     2.549
    23   1 H        0.924     0.030     2.581     2.512
    24   1 H        0.924     0.026     2.640     2.541
    25   1 H        0.924     0.028     2.614     2.528
    26   1 H        0.924     0.032     2.563     2.504
    27   1 H        0.924     0.026     2.646     2.544
    28   1 H        0.924     0.027     2.623     2.533
    29   1 H        0.924     0.032     2.557     2.501
    30   1 H        0.924     0.025     2.651     2.546
    31   1 H        0.924     0.025     2.653     2.547
    32   1 H        0.924     0.035     2.520     2.482
    33   1 H        0.924     0.027     2.629     2.536
    34   1 H        0.924     0.029     2.604     2.524
    35   1 H        0.924     0.026     2.644     2.543
    36   1 H        0.924     0.027     2.626     2.534
    37   1 H        0.924     0.027     2.623     2.533
    38   1 H        0.925     0.037     2.494     2.470
    39   1 H        0.924     0.025     2.662     2.551
    40   1 H        0.924     0.025     2.660     2.550
    41   1 H        0.925     0.038     2.480     2.463
    42   1 H        0.924     0.027     2.623     2.533
    43   1 H        0.924     0.028     2.620     2.531
    44   1 H        0.924     0.029     2.598     2.521
    45   1 H        0.924     0.026     2.643     2.542
    46   1 H        0.924     0.034     2.536     2.491
    47   1 H        0.924     0.027     2.625     2.534
    48   1 H        0.924     0.026     2.641     2.541
    49   1 H        0.924     0.026     2.641     2.541
    50   1 H        0.924     0.028     2.615     2.529
    51   1 H        0.924     0.029     2.605     2.524
    52   1 H        0.924     0.027     2.625     2.533
    53   1 H        0.924     0.030     2.588     2.516
    54   1 H        0.925     0.031     2.568     2.506
    55   1 H        0.925     0.032     2.556     2.500
    56   1 H        0.925     0.035     2.517     2.481

Wiberg/Mayer (AO) data.
largest (>0.10) Wiberg bond orders for each atom

     #   Z sym  total        # sym  WBO       # sym  WBO       # sym  WBO
 ---------------------------------------------------------------------------
     1   6 C    3.997 --     2 C    1.020    20 H    0.988    21 H    0.987
                            19 H    0.985
     2   6 C    3.998 --     1 C    1.020     3 C    1.008    22 H    0.979
                            23 H    0.977
     3   6 C    3.997 --     2 C    1.008     4 C    1.007    24 H    0.978
                            25 H    0.977
     4   6 C    3.997 --     5 C    1.008     3 C    1.007    27 H    0.977
                            26 H    0.976
     5   6 C    3.997 --     4 C    1.008     6 C    1.007    28 H    0.977
                            29 H    0.976
     6   6 C    3.997 --     7 C    1.007     5 C    1.007    30 H    0.978
                            31 H    0.977
     7   6 C    3.997 --     8 C    1.008     6 C    1.007    33 H    0.978
                            32 H    0.973
     8   6 C    3.997 --     7 C    1.008     9 C    1.006    35 H    0.977
                            34 H    0.974
     9   6 C    3.997 --    10 C    1.007     8 C    1.006    37 H    0.978
                            36 H    0.978
    10   6 C    3.997 --    11 C    1.009     9 C    1.007    39 H    0.978
                            38 H    0.970
    11   6 C    3.997 --    10 C    1.009    12 C    1.007    40 H    0.978
                            41 H    0.969
    12   6 C    3.997 --    11 C    1.007    13 C    1.007    43 H    0.978
                            42 H    0.977
    13   6 C    3.997 --    14 C    1.008    12 C    1.007    45 H    0.977
                            44 H    0.974
    14   6 C    3.997 --    13 C    1.008    15 C    1.007    47 H    0.977
                            46 H    0.973
    15   6 C    3.997 --    16 C    1.007    14 C    1.007    49 H    0.978
                            48 H    0.977
    16   6 C    3.997 --    17 C    1.008    15 C    1.007    50 H    0.978
                            51 H    0.977
    17   6 C    3.998 --    18 C    1.019    16 C    1.008    52 H    0.978
                            53 H    0.978
    18   6 C    3.997 --    17 C    1.019    55 H    0.988    54 H    0.988
                            56 H    0.987
    19   1 H    0.999 --     1 C    0.985
    20   1 H    0.999 --     1 C    0.988
    21   1 H    0.999 --     1 C    0.987
    22   1 H    0.999 --     2 C    0.979
    23   1 H    0.999 --     2 C    0.977
    24   1 H    0.999 --     3 C    0.978
    25   1 H    0.999 --     3 C    0.977
    26   1 H    0.999 --     4 C    0.976
    27   1 H    0.999 --     4 C    0.977
    28   1 H    0.999 --     5 C    0.977
    29   1 H    0.999 --     5 C    0.976
    30   1 H    0.999 --     6 C    0.978
    31   1 H    0.999 --     6 C    0.977
    32   1 H    0.999 --     7 C    0.973
    33   1 H    0.999 --     7 C    0.978
    34   1 H    0.999 --     8 C    0.974
    35   1 H    0.999 --     8 C    0.977
    36   1 H    0.999 --     9 C    0.978
    37   1 H    0.999 --     9 C    0.978
    38   1 H    0.999 --    10 C    0.970
    39   1 H    0.999 --    10 C    0.978
    40   1 H    0.999 --    11 C    0.978
    41   1 H    0.999 --    11 C    0.969
    42   1 H    0.999 --    12 C    0.977
    43   1 H    0.999 --    12 C    0.978
    44   1 H    0.999 --    13 C    0.974
    45   1 H    0.999 --    13 C    0.977
    46   1 H    0.999 --    14 C    0.973
    47   1 H    0.999 --    14 C    0.977
    48   1 H    0.999 --    15 C    0.977
    49   1 H    0.999 --    15 C    0.978
    50   1 H    0.999 --    16 C    0.978
    51   1 H    0.999 --    16 C    0.977
    52   1 H    0.999 --    17 C    0.978
    53   1 H    0.999 --    17 C    0.978
    54   1 H    0.999 --    18 C    0.988
    55   1 H    0.999 --    18 C    0.988
    56   1 H    0.999 --    18 C    0.987
 ---------------------------------------------------------------------------

molecular dipole:
                 x           y           z       tot (Debye)
 q only:        0.025       0.027       0.007
   full:        0.022       0.016       0.006       0.070

 projected vibrational frequencies (cm⁻¹)
eigval :       -0.00    -0.00     0.00     0.00     0.00     0.00
eigval :        5.91    14.72    23.04    33.07    46.49    55.51
eigval :       65.47    70.80    80.11    91.66   104.89   117.81
eigval :      129.07   132.33   156.61   194.10   204.70   217.73
eigval :      224.74   233.83   237.93   268.45   270.08   286.99
eigval :      319.52   350.70   383.16   411.90   422.76   451.28
eigval :      487.25   508.40   525.50   743.71   761.87   766.85
eigval :      772.87   783.77   799.21   818.49   834.80   856.93
eigval :      863.14   892.19   900.30   914.19   934.11   946.21
eigval :      951.82   979.33   994.42  1001.31  1015.73  1034.93
eigval :     1043.06  1053.13  1060.50  1067.40  1078.85  1084.56
eigval :     1104.86  1105.95  1106.83  1120.29  1128.16  1135.96
eigval :     1146.89  1149.86  1152.82  1156.43  1160.64  1168.08
eigval :     1204.99  1216.31  1228.52  1237.91  1249.68  1251.35
eigval :     1254.74  1267.40  1273.30  1276.83  1280.94  1284.38
eigval :     1292.15  1292.98  1296.42  1297.09  1300.50  1307.31
eigval :     1320.46  1346.72  1349.24  1356.69  1357.85  1363.40
eigval :     1363.82  1373.32  1375.64  1376.37  1378.77  1379.98
eigval :     1414.40  1418.63  1486.92  1488.12  1489.58  1491.76
eigval :     1493.13  1496.18  1496.26  1498.04  1499.03  1500.61
eigval :     1501.63  1502.10  1503.28  1505.00  1505.50  1506.35
eigval :     1507.39  1507.73  1509.46  1519.39  2950.48  2951.33
eigval :     2954.24  2955.16  2955.39  2955.96  2956.27  2957.76
eigval :     2958.50  2959.23  2962.11  2964.17  2965.56  2967.25
eigval :     2970.60  2971.26  2972.13  2973.48  2974.08  2975.21
eigval :     2976.19  2977.95  2982.44  2983.31  2985.87  2987.12
eigval :     2990.11  2991.36  2992.00  2995.19  3013.15  3018.01
eigval :     3029.23  3030.31  3033.66  3035.43  3039.89  3047.44

   temp. (K)  partition function   enthalpy   heat capacity  entropy
                                   cal/mol     cal/K/mol   cal/K/mol   J/K/mol
 298.15  VIB  0.777E+12            13236.366     74.762     87.689
         ROT  0.846E+07              888.752      2.981     34.679
         INT  0.657E+19            14125.118     77.743    122.368
         TR   0.393E+28             1481.254      4.968     42.483
         TOT                       15606.3722    82.7112   164.8508   689.7359

       T/K    H(0)-H(T)+PV         H(T)/Eh          T*S/Eh         G(T)/Eh
   ------------------------------------------------------------------------
    298.15    0.248703E-01    0.551290E+00    0.783260E-01    0.472964E+00
   ------------------------------------------------------------------------

         :::::::::::::::::::::::::::::::::::::::::::::::::::::
         ::                  THERMODYNAMIC                  ::
         :::::::::::::::::::::::::::::::::::::::::::::::::::::
         :: total free energy         -57.490243433969 Eh   ::
         ::.................................................::
         :: total energy              -57.963207131176 Eh   ::
         :: zero point energy           0.526419316957 Eh   ::
         :: G(RRHO) w/o ZPVE           -0.053455619749 Eh   ::
         :: G(RRHO) contrib.            0.472963697208 Eh   ::
         :::::::::::::::::::::::::::::::::::::::::::::::::::::

           -------------------------------------------------
          | TOTAL ENERGY              -57.963207131176 Eh   |
          | TOTAL ENTHALPY            -57.411917477053 Eh   |
          | TOTAL FREE ENERGY         -57.490243433969 Eh   |
          | GRADIENT NORM               0.000415702897 Eh/α |
          | HOMO-LUMO GAP              12.399054050146 eV   |
           -------------------------------------------------

 * finished run on 2024/04/23 at 12:11:03.081
