   * xtb version 6.6.1 (8d0f1dd) compiled by 'stahn@M-Bot' on 2023-08-01
          program call               : xtb unfolded.xyz --gfn 2 --ohess -P 4

   ID    Z sym.   atoms
    1    6 C      1-16
    2    1 H      17-50

          :  Hamiltonian                  GFN2-xTB          :
 * total energy  :   -51.6337325 Eh     change       -0.4028209E-09 Eh
 * total energy  :   -51.6364237 Eh     change       -0.2691209E-02 Eh
 * total energy  :   -51.6369090 Eh     change       -0.4853087E-03 Eh
 * total energy  :   -51.6369608 Eh     change       -0.5175440E-04 Eh
 * total energy  :   -51.6370088 Eh     change       -0.4805889E-04 Eh
 * total energy  :   -51.6370182 Eh     change       -0.9327326E-05 Eh
 * total energy  :   -51.6370230 Eh     change       -0.4854902E-05 Eh
 * total energy  :   -51.6370250 Eh     change       -0.1952948E-05 Eh
   *** GEOMETRY OPTIMIZATION CONVERGED AFTER 8 ITERATIONS ***

 final structure:
================
50
 xtb: 6.6.1 (8d0f1dd)
C            7.52215862284177       -3.88627174508459        2.24089116732815
C            6.11888060367689       -3.31161551106276        2.38760041555474
C            5.88387924822819       -2.13153574287609        1.44775181114552
C            4.47416234266277       -1.56238029319519        1.58465989858943
C            4.23707669887174       -0.37201746857158        0.65860415272957
C            2.81489674935050        0.16995636205940        0.78013891510294
C            2.57548445189338        1.35892770806045       -0.14757021784313
C            1.17896093907193        1.96571339464104       -0.00796542389232
C            0.06632572376778        1.04388440602600       -0.50221997689201
C           -1.30158990236886        1.71959764307529       -0.44688285958330
C           -2.41627549138332        0.79131412467658       -0.92265414182110
C           -3.78541722555700        1.46500356826789       -0.88280793080919
C           -4.89826660820265        0.52855287005365       -1.34681704338515
C           -6.26619382052322        1.20554127749597       -1.32641969997332
C           -7.38082316275701        0.26598448482571       -1.77990981350692
C           -8.74112134544756        0.95196190030360       -1.76839681106571
H            8.27011429174636       -3.12800197779737        2.46288927676190
H            7.68547531962852       -4.23943006378504        1.22486245762570
H            7.66790213760409       -4.72168416198847        2.92196963426387
H            5.38359746070656       -4.09174319718714        2.17633862423933
H            5.96626861260927       -2.98558352146338        3.41920439212069
H            6.61347352542972       -1.34732651420168        1.66423505499762
H            6.04415866093421       -2.45484392105326        0.41625869071293
H            4.30959370114374       -1.25183600534117        2.61945958651396
H            3.74680511539362       -2.34576164487443        1.35717426755974
H            4.41899416679777       -0.67654290269604       -0.37504309027227
H            4.95008995133722        0.42067573050069        0.89830789287052
H            2.63257181479791        0.47694250984514        1.81296369811818
H            2.11235438529498       -0.63052328173545        0.54244207424210
H            3.31656361229371        2.13085485211033        0.07575049800751
H            2.72968826998048        1.04560304914458       -1.18301196793532
H            0.99898617678179        2.22007172162276        1.03935261565402
H            1.14285807836005        2.89498448210557       -0.58254617179332
H            0.03727120897817        0.13966273867971        0.10806588616150
H            0.27837583165430        0.74404102667436       -1.53145806848688
H           -1.50716141195463        2.03443142809134        0.57916157144391
H           -1.28831241388072        2.61729461096293       -1.06995023526528
H           -2.43553163251501       -0.10126985768451       -0.29241495582955
H           -2.20390550085946        0.46753369416426       -1.94456074867228
H           -3.99490757720835        1.79744342469429        0.13686080189352
H           -3.76990983969795        2.35176576896079       -1.52119078794869
H           -4.92146631654306       -0.35200436219324       -0.69998413022688
H           -4.68091264890008        0.18527498264544       -2.36133877595783
H           -6.24504847054139        2.08089861981780       -1.98025487008616
H           -6.48055811432663        1.55609221681885       -0.31381056943040
H           -7.16277801659267       -0.09076500904604       -2.78936384555932
H           -7.40782667167874       -0.60518822152689       -1.12105249708528
H           -9.52049501565796        0.26551409263258       -2.09140519296125
H           -8.74093147544678        1.81013261196952       -2.43717606732306
H           -8.98407503979431        1.30028510243777       -0.76671449003141
           -------------------------------------------------
          |                Final Singlepoint                |
           -------------------------------------------------

          :  Hamiltonian                  GFN2-xTB          :
         :: gradient norm              0.000539527691 Eh/a0 ::
         :: HOMO-LUMO gap             12.115639647743 eV    ::
         :: SCC energy               -52.407734313206 Eh    ::
         :: -> dispersion             -0.033000715362 Eh    ::
         :: repulsion energy           0.771082540370 Eh    ::

    * Orbital Energies and Occupations

         #    Occupation            Energy/Eh            Energy/eV
      -------------------------------------------------------------
         1        2.0000           -0.6233845             -16.9632
       ...           ...                  ...                  ...
        37        2.0000           -0.4378563             -11.9147
        38        2.0000           -0.4340322             -11.8106
        39        2.0000           -0.4301204             -11.7042
        40        2.0000           -0.4277066             -11.6385
        41        2.0000           -0.4271019             -11.6220
        42        2.0000           -0.4260591             -11.5937
        43        2.0000           -0.4215029             -11.4697
        44        2.0000           -0.4191135             -11.4047
        45        2.0000           -0.4177488             -11.3675
        46        2.0000           -0.4167739             -11.3410
        47        2.0000           -0.4163034             -11.3282
        48        2.0000           -0.4109415             -11.1823
        49        2.0000           -0.4088709             -11.1259 (HOMO)
        50                          0.0363707               0.9897 (LUMO)
        51                          0.0487181               1.3257
        52                          0.0901618               2.4534
        53                          0.1024500               2.7878
        54                          0.1059762               2.8838
        55                          0.1120584               3.0493
        56                          0.1137878               3.0963
        57                          0.1163144               3.1651
        58                          0.1175780               3.1995
        59                          0.1221051               3.3226
        60                          0.1284477               3.4952
       ...                                ...                  ...
        98                          0.3277770               8.9193
      -------------------------------------------------------------
                  HL-Gap            0.4452416 Eh           12.1156 eV

     #   Z          covCN         q      C6AA      α(0)
     1   6 C        3.752    -0.102    22.509     6.766
     2   6 C        3.801    -0.053    21.522     6.605
     3   6 C        3.803    -0.059    21.633     6.622
     4   6 C        3.803    -0.058    21.620     6.620
     5   6 C        3.803    -0.058    21.620     6.620
     6   6 C        3.802    -0.059    21.630     6.621
     7   6 C        3.802    -0.058    21.618     6.620
     8   6 C        3.802    -0.058    21.619     6.620
     9   6 C        3.802    -0.059    21.629     6.621
    10   6 C        3.803    -0.058    21.622     6.620
    11   6 C        3.803    -0.058    21.617     6.619
    12   6 C        3.803    -0.058    21.618     6.619
    13   6 C        3.803    -0.058    21.622     6.620
    14   6 C        3.803    -0.059    21.633     6.622
    15   6 C        3.801    -0.053    21.522     6.605
    16   6 C        3.752    -0.102    22.510     6.766
    17   1 H        0.925     0.033     2.542     2.493
    18   1 H        0.925     0.033     2.542     2.493
    19   1 H        0.925     0.033     2.551     2.498
    20   1 H        0.924     0.028     2.609     2.526
    21   1 H        0.924     0.028     2.609     2.526
    22   1 H        0.924     0.030     2.593     2.518
    23   1 H        0.924     0.030     2.592     2.518
    24   1 H        0.924     0.028     2.609     2.526
    25   1 H        0.924     0.028     2.610     2.526
    26   1 H        0.924     0.029     2.607     2.525
    27   1 H        0.924     0.028     2.614     2.528
    28   1 H        0.924     0.029     2.597     2.520
    29   1 H        0.924     0.031     2.566     2.505
    30   1 H        0.924     0.028     2.609     2.526
    31   1 H        0.924     0.030     2.592     2.518
    32   1 H        0.924     0.030     2.593     2.518
    33   1 H        0.924     0.029     2.607     2.525
    34   1 H        0.924     0.031     2.569     2.506
    35   1 H        0.924     0.030     2.593     2.518
    36   1 H        0.924     0.029     2.607     2.525
    37   1 H        0.924     0.028     2.612     2.527
    38   1 H        0.924     0.029     2.604     2.523
    39   1 H        0.924     0.029     2.601     2.522
    40   1 H        0.924     0.029     2.602     2.522
    41   1 H        0.924     0.029     2.602     2.522
    42   1 H        0.924     0.028     2.608     2.526
    43   1 H        0.924     0.029     2.608     2.525
    44   1 H        0.924     0.030     2.590     2.517
    45   1 H        0.924     0.030     2.591     2.517
    46   1 H        0.924     0.028     2.608     2.526
    47   1 H        0.924     0.028     2.609     2.526
    48   1 H        0.925     0.033     2.550     2.497
    49   1 H        0.925     0.033     2.542     2.493
    50   1 H        0.925     0.033     2.541     2.493

Wiberg/Mayer (AO) data.
largest (>0.10) Wiberg bond orders for each atom

     #   Z sym  total        # sym  WBO       # sym  WBO       # sym  WBO
 ---------------------------------------------------------------------------
     1   6 C    3.997 --     2 C    1.019    18 H    0.988    17 H    0.988
                            19 H    0.988
     2   6 C    3.998 --     1 C    1.019     3 C    1.008    21 H    0.979
                            20 H    0.979
     3   6 C    3.997 --     2 C    1.008     4 C    1.007    22 H    0.978
                            23 H    0.978
     4   6 C    3.997 --     3 C    1.007     5 C    1.007    24 H    0.978
                            25 H    0.977
     5   6 C    3.997 --     4 C    1.007     6 C    1.007    26 H    0.978
                            27 H    0.978
     6   6 C    3.997 --     7 C    1.008     5 C    1.007    28 H    0.977
                            29 H    0.975
     7   6 C    3.997 --     6 C    1.008     8 C    1.006    31 H    0.977
                            30 H    0.977
     8   6 C    3.997 --     9 C    1.008     7 C    1.006    32 H    0.977
                            33 H    0.977
     9   6 C    3.997 --     8 C    1.008    10 C    1.007    35 H    0.977
                            34 H    0.975
    10   6 C    3.997 --    11 C    1.007     9 C    1.007    36 H    0.978
                            37 H    0.977
    11   6 C    3.997 --    10 C    1.007    12 C    1.007    39 H    0.977
                            38 H    0.977
    12   6 C    3.997 --    11 C    1.007    13 C    1.007    40 H    0.978
                            41 H    0.978
    13   6 C    3.997 --    14 C    1.007    12 C    1.007    42 H    0.978
                            43 H    0.977
    14   6 C    3.997 --    15 C    1.008    13 C    1.007    45 H    0.978
                            44 H    0.977
    15   6 C    3.998 --    16 C    1.019    14 C    1.008    47 H    0.979
                            46 H    0.979
    16   6 C    3.997 --    15 C    1.019    49 H    0.988    50 H    0.988
                            48 H    0.988
    17   1 H    0.999 --     1 C    0.988
    18   1 H    0.999 --     1 C    0.988
    19   1 H    0.999 --     1 C    0.988
    20   1 H    0.999 --     2 C    0.979
    21   1 H    0.999 --     2 C    0.979
    22   1 H    0.999 --     3 C    0.978
    23   1 H    0.999 --     3 C    0.978
    24   1 H    0.999 --     4 C    0.978
    25   1 H    0.999 --     4 C    0.977
    26   1 H    0.999 --     5 C    0.978
    27   1 H    0.999 --     5 C    0.978
    28   1 H    0.999 --     6 C    0.977
    29   1 H    0.999 --     6 C    0.975
    30   1 H    0.999 --     7 C    0.977
    31   1 H    0.999 --     7 C    0.977
    32   1 H    0.999 --     8 C    0.977
    33   1 H    0.999 --     8 C    0.977
    34   1 H    0.999 --     9 C    0.975
    35   1 H    0.999 --     9 C    0.977
    36   1 H    0.999 --    10 C    0.978
    37   1 H    0.999 --    10 C    0.977
    38   1 H    0.999 --    11 C    0.977
    39   1 H    0.999 --    11 C    0.977
    40   1 H    0.999 --    12 C    0.978
    41   1 H    0.999 --    12 C    0.978
    42   1 H    0.999 --    13 C    0.978
    43   1 H    0.999 --    13 C    0.977
    44   1 H    0.999 --    14 C    0.977
    45   1 H    0.999 --    14 C    0.978
    46   1 H    0.999 --    15 C    0.979
    47   1 H    0.999 --    15 C    0.979
    48   1 H    0.999 --    16 C    0.988
    49   1 H    0.999 --    16 C    0.988
    50   1 H    0.999 --    16 C    0.988
 ---------------------------------------------------------------------------

molecular dipole:
                 x           y           z       tot (Debye)
 q only:       -0.002      -0.004      -0.001
   full:       -0.002      -0.001      -0.001       0.006

 projected vibrational frequencies (cm⁻¹)
eigval :       -0.00    -0.00    -0.00    -0.00     0.00     0.00
eigval :       15.73    21.29    29.28    38.38    46.26    64.33
eigval :       70.06    80.42    86.54   103.15   113.38   124.45
eigval :      139.55   142.57   148.06   151.30   196.11   211.76
eigval :      233.95   234.11   248.47   278.83   331.38   370.39
eigval :      395.63   466.67   470.30   480.75   536.12   766.23
eigval :      769.27   770.48   774.49   781.97   799.00   810.83
eigval :      847.85   863.31   906.72   929.27   940.57   941.03
eigval :      961.63   982.26  1001.94  1022.41  1032.55  1043.42
eigval :     1052.38  1065.02  1076.91  1085.78  1101.46  1104.41
eigval :     1107.56  1109.60  1113.18  1117.50  1129.28  1132.46
eigval :     1141.44  1173.69  1202.61  1207.12  1224.32  1227.55
eigval :     1238.19  1243.00  1257.42  1262.61  1270.79  1274.71
eigval :     1277.24  1280.09  1284.50  1290.55  1293.51  1294.66
eigval :     1297.28  1299.86  1305.18  1330.38  1334.08  1359.22
eigval :     1362.78  1375.04  1377.88  1378.96  1379.45  1380.76
eigval :     1416.49  1416.51  1491.28  1491.48  1495.64  1495.84
eigval :     1496.75  1496.78  1498.08  1498.85  1500.09  1501.06
eigval :     1501.97  1502.37  1504.25  1504.97  1505.03  1505.86
eigval :     1508.04  1508.13  2951.97  2952.11  2953.25  2954.72
eigval :     2955.62  2956.49  2957.05  2961.25  2962.29  2966.97
eigval :     2969.16  2971.13  2971.30  2971.89  2972.34  2973.16
eigval :     2973.81  2975.30  2975.83  2976.28  2978.00  2978.65
eigval :     2980.72  2983.54  2984.36  2987.10  2990.84  2996.21
eigval :     3029.57  3029.71  3031.64  3031.76  3037.32  3037.40

   temp. (K)  partition function   enthalpy   heat capacity  entropy
                                   cal/mol     cal/K/mol   cal/K/mol   J/K/mol
 298.15  VIB  0.339E+11            12034.788     66.297     79.858
         ROT  0.107E+08              888.752      2.981     35.140
         INT  0.362E+18            12923.541     69.278    114.997
         TR   0.330E+28             1481.254      4.968     42.135
         TOT                       14404.7945    74.2465   157.1323   657.4417

       T/K    H(0)-H(T)+PV         H(T)/Eh          T*S/Eh         G(T)/Eh
   ------------------------------------------------------------------------
    298.15    0.229555E-01    0.491832E+00    0.746586E-01    0.417174E+00
   ------------------------------------------------------------------------

         :::::::::::::::::::::::::::::::::::::::::::::::::::::
         ::                  THERMODYNAMIC                  ::
         :::::::::::::::::::::::::::::::::::::::::::::::::::::
         :: total free energy         -51.219851417474 Eh   ::
         ::.................................................::
         :: total energy              -51.637024958354 Eh   ::
         :: zero point energy           0.468876687535 Eh   ::
         :: G(RRHO) w/o ZPVE           -0.051703146654 Eh   ::
         :: G(RRHO) contrib.            0.417173540881 Eh   ::
         :::::::::::::::::::::::::::::::::::::::::::::::::::::

           -------------------------------------------------
          | TOTAL ENERGY              -51.637024958354 Eh   |
          | TOTAL ENTHALPY            -51.145192769630 Eh   |
          | TOTAL FREE ENERGY         -51.219851417474 Eh   |
          | GRADIENT NORM               0.000539534019 Eh/α |
          | HOMO-LUMO GAP              12.115639953426 eV   |
           -------------------------------------------------

 * finished run on 2024/04/23 at 12:10:52.369
