   * xtb version 6.6.1 (8d0f1dd) compiled by 'stahn@M-Bot' on 2023-08-01
          program call               : xtb unfolded.xyz --gfn 2 --ohess -P 4

   ID    Z sym.   atoms
    1    6 C      1-9
    2    1 H      10-29

          :  Hamiltonian                  GFN2-xTB          :
 * total energy  :   -29.4842287 Eh     change       -0.1318412E-10 Eh
 * total energy  :   -29.4858506 Eh     change       -0.1621811E-02 Eh
 * total energy  :   -29.4860892 Eh     change       -0.2385935E-03 Eh
 * total energy  :   -29.4861015 Eh     change       -0.1238406E-04 Eh
 * total energy  :   -29.4861123 Eh     change       -0.1079086E-04 Eh
 * total energy  :   -29.4861203 Eh     change       -0.7970193E-05 Eh
 * total energy  :   -29.4861387 Eh     change       -0.1843349E-04 Eh
 * total energy  :   -29.4861442 Eh     change       -0.5466163E-05 Eh
 * total energy  :   -29.4861496 Eh     change       -0.5411739E-05 Eh
 * total energy  :   -29.4861530 Eh     change       -0.3413626E-05 Eh
   *** GEOMETRY OPTIMIZATION CONVERGED AFTER 10 ITERATIONS ***

 final structure:
================
29
 xtb: 6.6.1 (8d0f1dd)
C           -4.74473281722370       -0.61448898647113        0.16048558708592
C           -3.30894731029280       -0.77576466381471       -0.32375686321057
C           -2.40008635847187        0.33126350458353        0.20577831070674
C           -0.95821189514502        0.16436344385520       -0.26808788116687
C           -0.04274293708222        1.25169434385465        0.29098306922509
C            1.38630214007680        1.17750748725955       -0.24909007733376
C            2.14741165487460       -0.06045553791562        0.22053130800793
C            3.59810850703829       -0.05564077106460       -0.25612277572515
C            4.34451665798073       -1.30694553339999        0.19098503271466
H           -5.37212103287630       -1.41428670601982       -0.22641660773692
H           -5.15553119170889        0.33606487661007       -0.17298449790350
H           -4.78561438946935       -0.64142583196770        1.24733109381536
H           -3.29105549168529       -0.76517325473749       -1.41603151870741
H           -2.92365351482551       -1.74441394842663        0.00315209287354
H           -2.78162244303017        1.30010889819914       -0.12546060160746
H           -2.42372178212564        0.32390341458043        1.29822456153354
H           -0.93122777859868        0.19755858664738       -1.35996805846300
H           -0.59720477328045       -0.81702889539853        0.04387774920930
H           -0.01995705881586        1.17964023449267        1.38094829026653
H           -0.46244303355679        2.22787276864704        0.03486531418416
H            1.93001752591115        2.06747354261263        0.07836317555381
H            1.35960558022802        1.19247873005240       -1.34132779494040
H            1.65723314122177       -0.95946032946577       -0.15665694662145
H            2.12753202446885       -0.10262466679312        1.31223327518996
H            3.61847516016245        0.00807913379332       -1.34659084749229
H            4.10559617666903        0.82896123389138        0.13566795118169
H            5.37380897989648       -1.28642454395656       -0.15974424650978
H            3.86465756823271       -2.19909133220317       -0.20598567134354
H            4.35308869142769       -1.37872919744459        1.27655157721388
           -------------------------------------------------
          |                Final Singlepoint                |
           -------------------------------------------------

          :  Hamiltonian                  GFN2-xTB          :
         :: gradient norm              0.000422189533 Eh/a0 ::
         :: HOMO-LUMO gap             12.684918951666 eV    ::
         :: SCC energy               -29.930385189155 Eh    ::
         :: -> dispersion             -0.017406504789 Eh    ::
         :: repulsion energy           0.444291519384 Eh    ::

    * Orbital Energies and Occupations

         #    Occupation            Energy/Eh            Energy/eV
      -------------------------------------------------------------
         1        2.0000           -0.6225753             -16.9411
       ...           ...                  ...                  ...
        16        2.0000           -0.4775287             -12.9942
        17        2.0000           -0.4702510             -12.7962
        18        2.0000           -0.4616994             -12.5635
        19        2.0000           -0.4517842             -12.2937
        20        2.0000           -0.4513898             -12.2829
        21        2.0000           -0.4368776             -11.8880
        22        2.0000           -0.4343383             -11.8189
        23        2.0000           -0.4327458             -11.7756
        24        2.0000           -0.4256749             -11.5832
        25        2.0000           -0.4212349             -11.4624
        26        2.0000           -0.4188716             -11.3981
        27        2.0000           -0.4152283             -11.2989
        28        2.0000           -0.4118709             -11.2076 (HOMO)
        29                          0.0542913               1.4773 (LUMO)
        30                          0.0749194               2.0387
        31                          0.1114982               3.0340
        32                          0.1151633               3.1338
        33                          0.1211277               3.2961
        34                          0.1259457               3.4272
        35                          0.1402472               3.8163
        36                          0.1474128               4.0113
        37                          0.1540799               4.1927
        38                          0.1578432               4.2951
        39                          0.1670187               4.5448
       ...                                ...                  ...
        56                          0.3241178               8.8197
      -------------------------------------------------------------
                  HL-Gap            0.4661622 Eh           12.6849 eV

     #   Z          covCN         q      C6AA      α(0)
     1   6 C        3.752    -0.102    22.509     6.766
     2   6 C        3.801    -0.053    21.521     6.605
     3   6 C        3.803    -0.059    21.635     6.622
     4   6 C        3.802    -0.059    21.630     6.621
     5   6 C        3.802    -0.058    21.613     6.619
     6   6 C        3.802    -0.058    21.620     6.620
     7   6 C        3.803    -0.059    21.642     6.623
     8   6 C        3.801    -0.053    21.525     6.606
     9   6 C        3.752    -0.102    22.506     6.765
    10   1 H        0.925     0.032     2.553     2.498
    11   1 H        0.925     0.033     2.544     2.494
    12   1 H        0.925     0.033     2.543     2.494
    13   1 H        0.924     0.028     2.610     2.527
    14   1 H        0.924     0.028     2.612     2.527
    15   1 H        0.924     0.029     2.605     2.524
    16   1 H        0.924     0.029     2.597     2.520
    17   1 H        0.924     0.029     2.603     2.523
    18   1 H        0.924     0.031     2.575     2.509
    19   1 H        0.924     0.029     2.596     2.519
    20   1 H        0.924     0.028     2.612     2.527
    21   1 H        0.924     0.028     2.617     2.530
    22   1 H        0.924     0.029     2.602     2.523
    23   1 H        0.924     0.032     2.558     2.501
    24   1 H        0.924     0.030     2.586     2.515
    25   1 H        0.924     0.028     2.616     2.529
    26   1 H        0.924     0.028     2.622     2.532
    27   1 H        0.925     0.032     2.556     2.500
    28   1 H        0.925     0.033     2.545     2.495
    29   1 H        0.925     0.033     2.544     2.494

Wiberg/Mayer (AO) data.
largest (>0.10) Wiberg bond orders for each atom

     #   Z sym  total        # sym  WBO       # sym  WBO       # sym  WBO
 ---------------------------------------------------------------------------
     1   6 C    3.997 --     2 C    1.019    11 H    0.988    12 H    0.988
                            10 H    0.988
     2   6 C    3.998 --     1 C    1.019     3 C    1.008    13 H    0.979
                            14 H    0.979
     3   6 C    3.997 --     2 C    1.008     4 C    1.007    15 H    0.978
                            16 H    0.978
     4   6 C    3.998 --     5 C    1.008     3 C    1.007    17 H    0.977
                            18 H    0.975
     5   6 C    3.997 --     4 C    1.008     6 C    1.006    19 H    0.977
                            20 H    0.977
     6   6 C    3.997 --     7 C    1.008     5 C    1.006    22 H    0.977
                            21 H    0.977
     7   6 C    3.997 --     6 C    1.008     8 C    1.008    24 H    0.977
                            23 H    0.975
     8   6 C    3.998 --     9 C    1.019     7 C    1.008    25 H    0.979
                            26 H    0.979
     9   6 C    3.997 --     8 C    1.019    29 H    0.988    28 H    0.988
                            27 H    0.988
    10   1 H    0.999 --     1 C    0.988
    11   1 H    0.999 --     1 C    0.988
    12   1 H    0.999 --     1 C    0.988
    13   1 H    0.999 --     2 C    0.979
    14   1 H    0.999 --     2 C    0.979
    15   1 H    0.999 --     3 C    0.978
    16   1 H    0.999 --     3 C    0.978
    17   1 H    0.999 --     4 C    0.977
    18   1 H    0.999 --     4 C    0.975
    19   1 H    0.999 --     5 C    0.977
    20   1 H    0.999 --     5 C    0.977
    21   1 H    0.999 --     6 C    0.977
    22   1 H    0.999 --     6 C    0.977
    23   1 H    0.999 --     7 C    0.975
    24   1 H    0.999 --     7 C    0.977
    25   1 H    0.999 --     8 C    0.979
    26   1 H    0.999 --     8 C    0.979
    27   1 H    0.999 --     9 C    0.988
    28   1 H    0.999 --     9 C    0.988
    29   1 H    0.999 --     9 C    0.988
 ---------------------------------------------------------------------------

molecular dipole:
                 x           y           z       tot (Debye)
 q only:       -0.004      -0.013       0.006
   full:       -0.004      -0.009       0.005       0.029

 projected vibrational frequencies (cm⁻¹)
eigval :       -0.00    -0.00     0.00     0.00     0.00     0.00
eigval :       39.18    47.76    58.67   100.75   106.63   120.23
eigval :      153.29   202.99   232.02   233.54   260.13   340.03
eigval :      402.61   418.39   512.78   765.65   773.92   791.44
eigval :      822.33   866.40   928.61   934.43   941.24   970.30
eigval :      998.65  1028.48  1072.50  1088.18  1097.61  1112.05
eigval :     1116.07  1130.75  1146.27  1178.49  1213.81  1227.66
eigval :     1257.14  1260.98  1277.10  1282.50  1286.29  1289.51
eigval :     1298.76  1324.24  1349.11  1367.14  1377.67  1380.28
eigval :     1416.22  1416.34  1491.34  1491.69  1496.15  1497.74
eigval :     1499.84  1500.80  1503.09  1504.92  1505.24  1507.95
eigval :     1508.15  2955.31  2956.31  2957.30  2961.08  2965.71
eigval :     2971.69  2973.79  2974.16  2976.64  2979.55  2981.72
eigval :     2983.72  2989.23  2995.89  3029.41  3030.31  3032.00
eigval :     3032.05  3037.56  3037.84

   temp. (K)  partition function   enthalpy   heat capacity  entropy
                                   cal/mol     cal/K/mol   cal/K/mol   J/K/mol
 298.15  VIB  0.365E+05             6023.534     35.787     38.802
         ROT  0.104E+07              888.752      2.981     30.510
         INT  0.379E+11             6912.286     38.768     69.312
         TR   0.141E+28             1481.254      4.968     40.441
         TOT                        8393.5400    43.7358   109.7532   459.2076

       T/K    H(0)-H(T)+PV         H(T)/Eh          T*S/Eh         G(T)/Eh
   ------------------------------------------------------------------------
    298.15    0.133760E-01    0.285265E+00    0.521473E-01    0.233117E+00
   ------------------------------------------------------------------------

         :::::::::::::::::::::::::::::::::::::::::::::::::::::
         ::                  THERMODYNAMIC                  ::
         :::::::::::::::::::::::::::::::::::::::::::::::::::::
         :: total free energy         -29.253035814759 Eh   ::
         ::.................................................::
         :: total energy              -29.486153022909 Eh   ::
         :: zero point energy           0.271888560932 Eh   ::
         :: G(RRHO) w/o ZPVE           -0.038771352782 Eh   ::
         :: G(RRHO) contrib.            0.233117208150 Eh   ::
         :::::::::::::::::::::::::::::::::::::::::::::::::::::

           -------------------------------------------------
          | TOTAL ENERGY              -29.486153022909 Eh   |
          | TOTAL ENTHALPY            -29.200888504565 Eh   |
          | TOTAL FREE ENERGY         -29.253035814759 Eh   |
          | GRADIENT NORM               0.000422187491 Eh/α |
          | HOMO-LUMO GAP              12.684919065928 eV   |
           -------------------------------------------------

 * finished run on 2024/04/23 at 12:10:23.704
