   * xtb version 6.6.1 (8d0f1dd) compiled by 'stahn@M-Bot' on 2023-08-01
          program call               : xtb folded.xyz --gfn 2 --ohess -P 4

   ID    Z sym.   atoms
    1    6 C      1-7
    2    1 H      8-23

          :  Hamiltonian                  GFN2-xTB          :
 * total energy  :   -23.1549110 Eh     change       -0.1120881E-10 Eh
 * total energy  :   -23.1562213 Eh     change       -0.1310319E-02 Eh
 * total energy  :   -23.1563980 Eh     change       -0.1767688E-03 Eh
 * total energy  :   -23.1564122 Eh     change       -0.1413666E-04 Eh
 * total energy  :   -23.1564298 Eh     change       -0.1762595E-04 Eh
 * total energy  :   -23.1564367 Eh     change       -0.6927372E-05 Eh
 * total energy  :   -23.1564478 Eh     change       -0.1103989E-04 Eh
 * total energy  :   -23.1564533 Eh     change       -0.5538008E-05 Eh
 * total energy  :   -23.1564672 Eh     change       -0.1388145E-04 Eh
 * total energy  :   -23.1564784 Eh     change       -0.1124150E-04 Eh
 * total energy  :   -23.1564835 Eh     change       -0.5055841E-05 Eh
 * total energy  :   -23.1564852 Eh     change       -0.1702778E-05 Eh
   *** GEOMETRY OPTIMIZATION CONVERGED AFTER 12 ITERATIONS ***

 final structure:
================
23
 xtb: 6.6.1 (8d0f1dd)
C           -3.11416206244006       -0.71916603847072       -0.48677920923359
C           -1.86324826266086       -0.39253381699850        0.32023482297475
C           -1.13222803787820        0.82312527100431       -0.24490954248770
C            0.05202763077861        1.27705835382470        0.61019054909961
C            1.17615630365450        0.25022613466110        0.75782228722346
C            1.83964334690011       -0.12341007967110       -0.56578636980991
C            3.04555375533427       -1.03047519590692       -0.35188991656718
H           -2.85485434813560       -0.93226403647513       -1.52183675102719
H           -3.62100768059742       -1.58874978182785       -0.07440362257673
H           -3.80732462672780        0.11947803643187       -0.47509302653012
H           -2.14208891120215       -0.19455962834900        1.35799296121098
H           -1.20044184605786       -1.25923306615061        0.31232352484208
H           -0.79349674957473        0.60316391842677       -1.25880365664230
H           -1.83930166798051        1.65431595219749       -0.31331167756174
H           -0.31538362768585        1.53294124717913        1.60753297139615
H            0.46702641572460        2.18760685926557        0.16990624841302
H            0.79302309720895       -0.65152485127353        1.23861880172366
H            1.93570378902134        0.67264067052057        1.42126194384311
H            1.12131018686023       -0.63515309389374       -1.20813588206523
H            2.15710841350751        0.78756962772060       -1.07883854982688
H            3.78807307021169       -0.53899457267065        0.27341390706680
H            3.51023800670745       -1.28189685914768       -1.30264782429125
H            2.74548480503183       -1.95450305039672        0.13808001082619
           -------------------------------------------------
          |                Final Singlepoint                |
           -------------------------------------------------

          :  Hamiltonian                  GFN2-xTB          :
         :: gradient norm              0.000123465237 Eh/a0 ::
         :: HOMO-LUMO gap             13.335980051801 eV    ::
         :: SCC energy               -23.507261013023 Eh    ::
         :: -> dispersion             -0.013474446442 Eh    ::
         :: repulsion energy           0.350723151500 Eh    ::

    * Orbital Energies and Occupations

         #    Occupation            Energy/Eh            Energy/eV
      -------------------------------------------------------------
         1        2.0000           -0.6218797             -16.9222
       ...           ...                  ...                  ...
        10        2.0000           -0.4956370             -13.4870
        11        2.0000           -0.4875878             -13.2679
        12        2.0000           -0.4874151             -13.2632
        13        2.0000           -0.4778069             -13.0018
        14        2.0000           -0.4560982             -12.4111
        15        2.0000           -0.4545218             -12.3682
        16        2.0000           -0.4513837             -12.2828
        17        2.0000           -0.4425472             -12.0423
        18        2.0000           -0.4292731             -11.6811
        19        2.0000           -0.4277829             -11.6406
        20        2.0000           -0.4195746             -11.4172
        21        2.0000           -0.4155792             -11.3085
        22        2.0000           -0.4115815             -11.1997 (HOMO)
        23                          0.0785068               2.1363 (LUMO)
        24                          0.0826009               2.2477
        25                          0.1090088               2.9663
        26                          0.1225926               3.3359
        27                          0.1273644               3.4658
        28                          0.1347221               3.6660
        29                          0.1498832               4.0785
        30                          0.1583861               4.3099
        31                          0.1728696               4.7040
        32                          0.1785484               4.8585
        33                          0.1856041               5.0505
       ...                                ...                  ...
        44                          0.3157276               8.5914
      -------------------------------------------------------------
                  HL-Gap            0.4900882 Eh           13.3360 eV

     #   Z          covCN         q      C6AA      α(0)
     1   6 C        3.752    -0.102    22.502     6.765
     2   6 C        3.800    -0.053    21.517     6.604
     3   6 C        3.802    -0.059    21.628     6.621
     4   6 C        3.801    -0.058    21.616     6.619
     5   6 C        3.802    -0.059    21.628     6.621
     6   6 C        3.800    -0.053    21.517     6.604
     7   6 C        3.752    -0.102    22.502     6.765
     8   1 H        0.925     0.032     2.559     2.502
     9   1 H        0.925     0.032     2.565     2.504
    10   1 H        0.925     0.032     2.563     2.503
    11   1 H        0.924     0.028     2.616     2.529
    12   1 H        0.924     0.032     2.563     2.504
    13   1 H        0.924     0.031     2.567     2.505
    14   1 H        0.924     0.028     2.616     2.529
    15   1 H        0.924     0.028     2.619     2.531
    16   1 H        0.924     0.028     2.619     2.531
    17   1 H        0.924     0.031     2.568     2.506
    18   1 H        0.924     0.028     2.616     2.529
    19   1 H        0.924     0.032     2.563     2.504
    20   1 H        0.924     0.028     2.616     2.529
    21   1 H        0.925     0.032     2.562     2.503
    22   1 H        0.925     0.032     2.564     2.504
    23   1 H        0.925     0.032     2.559     2.502

Wiberg/Mayer (AO) data.
largest (>0.10) Wiberg bond orders for each atom

     #   Z sym  total        # sym  WBO       # sym  WBO       # sym  WBO
 ---------------------------------------------------------------------------
     1   6 C    3.997 --     2 C    1.019     8 H    0.988    10 H    0.988
                             9 H    0.988
     2   6 C    3.998 --     1 C    1.019     3 C    1.009    11 H    0.978
                            12 H    0.977
     3   6 C    3.997 --     2 C    1.009     4 C    1.007    14 H    0.977
                            13 H    0.976
     4   6 C    3.998 --     3 C    1.007     5 C    1.007    16 H    0.978
                            15 H    0.978
     5   6 C    3.997 --     6 C    1.009     4 C    1.007    18 H    0.977
                            17 H    0.976
     6   6 C    3.998 --     7 C    1.019     5 C    1.009    20 H    0.978
                            19 H    0.977
     7   6 C    3.997 --     6 C    1.019    23 H    0.988    21 H    0.988
                            22 H    0.988
     8   1 H    0.999 --     1 C    0.988
     9   1 H    0.999 --     1 C    0.988
    10   1 H    0.999 --     1 C    0.988
    11   1 H    0.999 --     2 C    0.978
    12   1 H    0.999 --     2 C    0.977
    13   1 H    0.999 --     3 C    0.976
    14   1 H    0.999 --     3 C    0.977
    15   1 H    0.999 --     4 C    0.978
    16   1 H    0.999 --     4 C    0.978
    17   1 H    0.999 --     5 C    0.976
    18   1 H    0.999 --     5 C    0.977
    19   1 H    0.999 --     6 C    0.977
    20   1 H    0.999 --     6 C    0.978
    21   1 H    0.999 --     7 C    0.988
    22   1 H    0.999 --     7 C    0.988
    23   1 H    0.999 --     7 C    0.988
 ---------------------------------------------------------------------------

molecular dipole:
                 x           y           z       tot (Debye)
 q only:       -0.000      -0.009      -0.004
   full:        0.000      -0.006      -0.003       0.016

 projected vibrational frequencies (cm⁻¹)
eigval :       -0.00     0.00     0.00     0.00     0.00     0.00
eigval :       46.45    69.02    73.41   184.69   208.87   234.70
eigval :      242.60   293.41   302.69   429.79   504.53   757.46
eigval :      789.47   827.81   881.50   907.93   915.77   962.41
eigval :      996.97  1061.25  1068.47  1087.69  1098.12  1146.57
eigval :     1158.43  1161.82  1224.99  1237.50  1268.51  1282.54
eigval :     1289.40  1301.38  1317.05  1363.48  1372.71  1375.75
eigval :     1416.73  1416.94  1489.90  1492.66  1500.26  1501.30
eigval :     1503.77  1505.77  1506.04  1508.60  1509.03  2954.98
eigval :     2956.11  2958.44  2967.71  2970.28  2975.55  2986.25
eigval :     2987.99  2992.64  2995.74  3027.85  3028.58  3030.44
eigval :     3031.04  3036.20  3036.80

   temp. (K)  partition function   enthalpy   heat capacity  entropy
                                   cal/mol     cal/K/mol   cal/K/mol   J/K/mol
 298.15  VIB   873.                 4225.556     26.758     26.493
         ROT  0.196E+06              888.752      2.981     27.198
         INT  0.171E+09             5114.308     29.738     53.691
         TR   0.970E+27             1481.254      4.968     39.706
         TOT                        6595.5622    34.7066    93.3971   390.7736

       T/K    H(0)-H(T)+PV         H(T)/Eh          T*S/Eh         G(T)/Eh
   ------------------------------------------------------------------------
    298.15    0.105107E-01    0.226328E+00    0.443760E-01    0.181952E+00
   ------------------------------------------------------------------------

         :::::::::::::::::::::::::::::::::::::::::::::::::::::
         ::                  THERMODYNAMIC                  ::
         :::::::::::::::::::::::::::::::::::::::::::::::::::::
         :: total free energy         -22.974533385260 Eh   ::
         ::.................................................::
         :: total energy              -23.156485190987 Eh   ::
         :: zero point energy           0.215817096542 Eh   ::
         :: G(RRHO) w/o ZPVE           -0.033865290816 Eh   ::
         :: G(RRHO) contrib.            0.181951805726 Eh   ::
         :::::::::::::::::::::::::::::::::::::::::::::::::::::

           -------------------------------------------------
          | TOTAL ENERGY              -23.156485190987 Eh   |
          | TOTAL ENTHALPY            -22.930157397107 Eh   |
          | TOTAL FREE ENERGY         -22.974533385260 Eh   |
          | GRADIENT NORM               0.000123465645 Eh/α |
          | HOMO-LUMO GAP              13.335979951869 eV   |
           -------------------------------------------------

 * finished run on 2024/04/20 at 10:59:02.459
