   * xtb version 6.6.1 (8d0f1dd) compiled by 'stahn@M-Bot' on 2023-08-01
          program call               : xtb folded.xyz --gfn 2 --ohess -P 4

   ID    Z sym.   atoms
    1    6 C      1-17
    2    1 H      18-53

          :  Hamiltonian                  GFN2-xTB          :
 * total energy  :   -54.7938283 Eh     change       -0.6072298E-10 Eh
 * total energy  :   -54.7970917 Eh     change       -0.3263367E-02 Eh
 * total energy  :   -54.7976278 Eh     change       -0.5361499E-03 Eh
 * total energy  :   -54.7976692 Eh     change       -0.4139794E-04 Eh
 * total energy  :   -54.7977309 Eh     change       -0.6163614E-04 Eh
 * total energy  :   -54.7977530 Eh     change       -0.2211967E-04 Eh
 * total energy  :   -54.7977917 Eh     change       -0.3870473E-04 Eh
 * total energy  :   -54.7978048 Eh     change       -0.1311903E-04 Eh
 * total energy  :   -54.7978241 Eh     change       -0.1927607E-04 Eh
 * total energy  :   -54.7978325 Eh     change       -0.8407035E-05 Eh
 * total energy  :   -54.7978402 Eh     change       -0.7692488E-05 Eh
 * total energy  :   -54.7978461 Eh     change       -0.5893191E-05 Eh
 * total energy  :   -54.7978517 Eh     change       -0.5632593E-05 Eh
 * total energy  :   -54.7978554 Eh     change       -0.3708612E-05 Eh
   *** GEOMETRY OPTIMIZATION CONVERGED AFTER 14 ITERATIONS ***

 final structure:
================
53
 xtb: 6.6.1 (8d0f1dd)
C            3.06012225026990       -2.49228907256067        0.40163287371921
C            2.23246819462301       -3.42616860691947       -0.47360203822682
C            0.90472977256024       -2.81341185337253       -0.92050885908402
C           -0.10222516608644       -2.65130928402805        0.21636332892762
C           -1.43631468422538       -2.10426650500993       -0.28609842757451
C           -2.43855459355403       -1.91453369248867        0.85066116200827
C           -3.79412854898405       -1.37179231271901        0.39060978763409
C           -3.74278550355462        0.02843649800339       -0.22458025842596
C           -3.38121184473924        1.11669970516677        0.78490557821352
C           -3.08412620616494        2.47220586338229        0.13963343384043
C           -1.87949930760772        2.48358135117603       -0.80585417449485
C           -0.57993552448542        2.01989493838653       -0.15120872044851
C            0.59104739427116        2.05979499422018       -1.13130724072624
C            1.86291045101453        1.41655623603578       -0.57595679576421
C            2.53613864154931        2.25320024277280        0.50987436371639
C            3.76539885611081        1.57411825471103        1.11584019070605
C            4.92483470240099        1.43396556535724        0.13618865853334
H            4.01172156633159       -2.95474671272637        0.65443646208690
H            3.26198095330781       -1.56092205960582       -0.12279168261899
H            2.54042950459855       -2.26264525050857        1.32850510179233
H            2.03529621474777       -4.35378950918164        0.06895268719954
H            2.81554281312759       -3.68169165178526       -1.36186743443624
H            0.46259209337165       -3.45545927145317       -1.68684181032326
H            1.09439175246407       -1.83930173806465       -1.37848388052189
H            0.29707048931062       -1.96975757491802        0.97033696916834
H           -0.26289139634869       -3.61925627462951        0.69769469660152
H           -1.25243153607338       -1.15117469674144       -0.78437929094436
H           -1.85563455749588       -2.78930111494662       -1.02721403126446
H           -2.60310529098718       -2.88014669783361        1.33622622509575
H           -2.00838665742099       -1.24916536473650        1.60176277151180
H           -4.20985512217871       -2.06115610233498       -0.34885400109882
H           -4.47369048259729       -1.35827803073198        1.24667576372705
H           -3.02416860353824        0.02680430628761       -1.04250178636563
H           -4.72089159218321        0.25835191154432       -0.65477698728237
H           -2.51547156117110        0.80846363157059        1.36964497196978
H           -4.21267607395301        1.23976275807789        1.48391363319238
H           -2.90878685737435        3.19936053319415        0.93686442907967
H           -3.96440594092643        2.80184868443100       -0.41825717739081
H           -2.08697724551902        1.85626371702966       -1.67525505549507
H           -1.74468352228873        3.50389100250603       -1.17475129751638
H           -0.36961418109602        2.65350550421588        0.71232710114071
H           -0.69324305377887        0.99497003415636        0.20405024757517
H            0.79969092212815        3.09380405823844       -1.41591720732923
H            0.29904429833544        1.52369175569208       -2.03890461565020
H            1.61642178019211        0.43287558657603       -0.16897022189913
H            2.56395271529281        1.27069045617093       -1.40019287272186
H            2.82782458604476        3.21950709519703        0.09101395868912
H            1.81961974291499        2.44255154519128        1.31147021262693
H            3.48408804094745        0.58585994460940        1.48700714214823
H            4.10102719828052        2.16391152740335        1.97252407279767
H            5.19901908141753        2.40502124534216       -0.27085144565759
H            5.79385238629965        1.01501179831559        0.63875762997880
H            4.66504865241990        0.77656963233473       -0.68952114041923
           -------------------------------------------------
          |                Final Singlepoint                |
           -------------------------------------------------

          :  Hamiltonian                  GFN2-xTB          :
         :: gradient norm              0.000360532502 Eh/a0 ::
         :: HOMO-LUMO gap             12.527074672733 eV    ::
         :: SCC energy               -55.615956993722 Eh    ::
         :: -> dispersion             -0.041803636057 Eh    ::
         :: repulsion energy           0.817031452403 Eh    ::

    * Orbital Energies and Occupations

         #    Occupation            Energy/Eh            Energy/eV
      -------------------------------------------------------------
         1        2.0000           -0.6237410             -16.9729
       ...           ...                  ...                  ...
        40        2.0000           -0.4357978             -11.8587
        41        2.0000           -0.4314540             -11.7405
        42        2.0000           -0.4291204             -11.6770
        43        2.0000           -0.4266541             -11.6098
        44        2.0000           -0.4227096             -11.5025
        45        2.0000           -0.4212170             -11.4619
        46        2.0000           -0.4191221             -11.4049
        47        2.0000           -0.4155655             -11.3081
        48        2.0000           -0.4144686             -11.2783
        49        2.0000           -0.4132107             -11.2440
        50        2.0000           -0.4109287             -11.1819
        51        2.0000           -0.4091446             -11.1334
        52        2.0000           -0.4051511             -11.0247 (HOMO)
        53                          0.0552104               1.5024 (LUMO)
        54                          0.0592839               1.6132
        55                          0.0752131               2.0467
        56                          0.0812979               2.2122
        57                          0.0935873               2.5466
        58                          0.0990736               2.6959
        59                          0.1031868               2.8079
        60                          0.1072494               2.9184
        61                          0.1118194               3.0428
        62                          0.1160548               3.1580
        63                          0.1199323               3.2635
       ...                                ...                  ...
       104                          0.3468042               9.4370
      -------------------------------------------------------------
                  HL-Gap            0.4603615 Eh           12.5271 eV

     #   Z          covCN         q      C6AA      α(0)
     1   6 C        3.751    -0.100    22.480     6.762
     2   6 C        3.800    -0.053    21.519     6.605
     3   6 C        3.802    -0.058    21.607     6.618
     4   6 C        3.802    -0.056    21.581     6.614
     5   6 C        3.802    -0.058    21.613     6.619
     6   6 C        3.801    -0.056    21.580     6.614
     7   6 C        3.801    -0.058    21.611     6.619
     8   6 C        3.801    -0.059    21.637     6.623
     9   6 C        3.801    -0.058    21.624     6.621
    10   6 C        3.800    -0.057    21.603     6.618
    11   6 C        3.801    -0.056    21.584     6.615
    12   6 C        3.802    -0.059    21.628     6.621
    13   6 C        3.802    -0.057    21.596     6.616
    14   6 C        3.801    -0.057    21.606     6.618
    15   6 C        3.801    -0.058    21.618     6.620
    16   6 C        3.800    -0.053    21.529     6.606
    17   6 C        3.751    -0.101    22.485     6.762
    18   1 H        0.925     0.030     2.592     2.518
    19   1 H        0.925     0.037     2.490     2.468
    20   1 H        0.925     0.032     2.555     2.500
    21   1 H        0.924     0.028     2.614     2.528
    22   1 H        0.924     0.027     2.632     2.537
    23   1 H        0.924     0.026     2.647     2.544
    24   1 H        0.924     0.031     2.568     2.506
    25   1 H        0.924     0.029     2.604     2.524
    26   1 H        0.924     0.026     2.646     2.544
    27   1 H        0.924     0.035     2.522     2.484
    28   1 H        0.924     0.026     2.650     2.546
    29   1 H        0.924     0.026     2.650     2.546
    30   1 H        0.924     0.029     2.604     2.524
    31   1 H        0.924     0.028     2.622     2.532
    32   1 H        0.924     0.027     2.627     2.534
    33   1 H        0.925     0.038     2.470     2.458
    34   1 H        0.924     0.025     2.665     2.553
    35   1 H        0.925     0.037     2.495     2.470
    36   1 H        0.924     0.024     2.667     2.554
    37   1 H        0.924     0.027     2.630     2.536
    38   1 H        0.924     0.027     2.633     2.538
    39   1 H        0.924     0.028     2.622     2.532
    40   1 H        0.924     0.025     2.655     2.548
    41   1 H        0.924     0.028     2.622     2.532
    42   1 H        0.924     0.038     2.471     2.458
    43   1 H        0.924     0.026     2.641     2.542
    44   1 H        0.924     0.025     2.661     2.551
    45   1 H        0.924     0.033     2.539     2.492
    46   1 H        0.924     0.028     2.611     2.527
    47   1 H        0.924     0.029     2.607     2.525
    48   1 H        0.924     0.029     2.602     2.522
    49   1 H        0.924     0.030     2.584     2.514
    50   1 H        0.924     0.026     2.638     2.540
    51   1 H        0.925     0.033     2.549     2.497
    52   1 H        0.925     0.031     2.579     2.511
    53   1 H        0.925     0.033     2.550     2.497

Wiberg/Mayer (AO) data.
largest (>0.10) Wiberg bond orders for each atom

     #   Z sym  total        # sym  WBO       # sym  WBO       # sym  WBO
 ---------------------------------------------------------------------------
     1   6 C    3.997 --     2 C    1.020    18 H    0.988    20 H    0.986
                            19 H    0.985
     2   6 C    3.998 --     1 C    1.020     3 C    1.007    22 H    0.979
                            21 H    0.978
     3   6 C    3.997 --     4 C    1.008     2 C    1.007    23 H    0.978
                            24 H    0.976
     4   6 C    3.998 --     3 C    1.008     5 C    1.006    26 H    0.978
                            25 H    0.975
     5   6 C    3.997 --     6 C    1.008     4 C    1.006    28 H    0.978
                            27 H    0.971
     6   6 C    3.997 --     5 C    1.008     7 C    1.007    29 H    0.977
                            30 H    0.973
     7   6 C    3.997 --     8 C    1.007     6 C    1.007    31 H    0.978
                            32 H    0.978
     8   6 C    3.997 --     9 C    1.009     7 C    1.007    34 H    0.978
                            33 H    0.969
     9   6 C    3.997 --     8 C    1.009    10 C    1.007    36 H    0.978
                            35 H    0.969
    10   6 C    3.997 --     9 C    1.007    11 C    1.006    37 H    0.978
                            38 H    0.978
    11   6 C    3.997 --    12 C    1.008    10 C    1.006    40 H    0.977
                            39 H    0.974
    12   6 C    3.997 --    11 C    1.008    13 C    1.008    41 H    0.976
                            42 H    0.971
    13   6 C    3.997 --    12 C    1.008    14 C    1.006    43 H    0.978
                            44 H    0.977
    14   6 C    3.997 --    15 C    1.009    13 C    1.006    46 H    0.976
                            45 H    0.974
    15   6 C    3.998 --    14 C    1.009    16 C    1.007    47 H    0.977
                            48 H    0.975
    16   6 C    3.998 --    17 C    1.020    15 C    1.007    50 H    0.979
                            49 H    0.977
    17   6 C    3.997 --    16 C    1.020    51 H    0.988    52 H    0.988
                            53 H    0.985
    18   1 H    0.999 --     1 C    0.988
    19   1 H    0.999 --     1 C    0.985
    20   1 H    0.999 --     1 C    0.986
    21   1 H    0.999 --     2 C    0.978
    22   1 H    0.999 --     2 C    0.979
    23   1 H    0.999 --     3 C    0.978
    24   1 H    0.999 --     3 C    0.976
    25   1 H    0.999 --     4 C    0.975
    26   1 H    0.999 --     4 C    0.978
    27   1 H    0.999 --     5 C    0.971
    28   1 H    0.999 --     5 C    0.978
    29   1 H    0.999 --     6 C    0.977
    30   1 H    0.999 --     6 C    0.973
    31   1 H    0.999 --     7 C    0.978
    32   1 H    0.999 --     7 C    0.978
    33   1 H    0.999 --     8 C    0.969
    34   1 H    0.999 --     8 C    0.978
    35   1 H    0.999 --     9 C    0.969
    36   1 H    0.999 --     9 C    0.978
    37   1 H    0.999 --    10 C    0.978
    38   1 H    0.999 --    10 C    0.978
    39   1 H    0.999 --    11 C    0.974
    40   1 H    0.999 --    11 C    0.977
    41   1 H    0.999 --    12 C    0.976
    42   1 H    0.999 --    12 C    0.971
    43   1 H    0.999 --    13 C    0.978
    44   1 H    0.999 --    13 C    0.977
    45   1 H    0.999 --    14 C    0.974
    46   1 H    0.999 --    14 C    0.976
    47   1 H    0.999 --    15 C    0.977
    48   1 H    0.999 --    15 C    0.975
    49   1 H    0.999 --    16 C    0.977
    50   1 H    0.999 --    16 C    0.979
    51   1 H    0.999 --    17 C    0.988
    52   1 H    0.999 --    17 C    0.988
    53   1 H    0.999 --    17 C    0.985
 ---------------------------------------------------------------------------

molecular dipole:
                 x           y           z       tot (Debye)
 q only:        0.033      -0.008       0.005
   full:        0.024      -0.004       0.001       0.063

 projected vibrational frequencies (cm⁻¹)
eigval :       -0.00    -0.00    -0.00     0.00     0.00     0.00
eigval :       16.24    23.12    29.17    39.69    42.76    50.50
eigval :       70.85    78.73    86.18   105.36   113.70   117.59
eigval :      142.67   168.41   197.76   206.65   222.19   233.28
eigval :      255.28   263.00   273.66   281.11   303.98   339.10
eigval :      354.13   401.44   407.34   445.42   494.32   514.88
eigval :      522.60   741.53   764.31   772.00   777.99   791.36
eigval :      808.58   816.22   836.14   853.16   883.02   912.08
eigval :      921.89   929.27   937.84   950.97   954.62   983.76
eigval :      999.44  1012.67  1016.70  1036.51  1041.39  1065.60
eigval :     1070.38  1078.15  1097.71  1109.78  1115.32  1120.31
eigval :     1132.07  1136.80  1138.58  1145.98  1150.57  1154.75
eigval :     1168.84  1181.79  1187.74  1206.43  1226.12  1247.60
eigval :     1254.69  1260.40  1264.14  1271.77  1273.45  1281.11
eigval :     1286.61  1289.42  1294.10  1297.39  1300.93  1315.89
eigval :     1319.48  1330.70  1353.92  1354.54  1355.65  1357.21
eigval :     1362.76  1370.24  1374.30  1376.85  1378.39  1380.05
eigval :     1415.77  1416.80  1484.42  1488.66  1489.16  1489.93
eigval :     1491.99  1492.58  1494.50  1496.15  1497.10  1497.62
eigval :     1500.27  1501.22  1505.25  1506.13  1507.89  1508.26
eigval :     1509.21  1512.58  1513.58  2950.90  2953.54  2954.02
eigval :     2954.93  2956.56  2958.69  2959.26  2959.71  2960.74
eigval :     2962.09  2962.50  2966.16  2969.33  2971.21  2974.24
eigval :     2974.62  2975.96  2977.38  2978.27  2979.95  2980.36
eigval :     2981.01  2982.66  2984.26  2986.65  2991.63  2993.57
eigval :     2998.74  3013.55  3020.48  3030.27  3031.59  3033.01
eigval :     3035.98  3042.51  3044.00

   temp. (K)  partition function   enthalpy   heat capacity  entropy
                                   cal/mol     cal/K/mol   cal/K/mol   J/K/mol
 298.15  VIB  0.285E+11            12337.191     70.201     80.227
         ROT  0.644E+07              888.752      2.981     34.137
         INT  0.183E+18            13225.943     73.182    114.364
         TR   0.361E+28             1481.254      4.968     42.314
         TOT                       14707.1969    78.1504   156.6781   655.5413

       T/K    H(0)-H(T)+PV         H(T)/Eh          T*S/Eh         G(T)/Eh
   ------------------------------------------------------------------------
    298.15    0.234374E-01    0.521788E+00    0.744428E-01    0.447345E+00
   ------------------------------------------------------------------------

         :::::::::::::::::::::::::::::::::::::::::::::::::::::
         ::                  THERMODYNAMIC                  ::
         :::::::::::::::::::::::::::::::::::::::::::::::::::::
         :: total free energy         -54.350510607065 Eh   ::
         ::.................................................::
         :: total energy              -54.797855407584 Eh   ::
         :: zero point energy           0.498350230111 Eh   ::
         :: G(RRHO) w/o ZPVE           -0.051005429592 Eh   ::
         :: G(RRHO) contrib.            0.447344800519 Eh   ::
         :::::::::::::::::::::::::::::::::::::::::::::::::::::

           -------------------------------------------------
          | TOTAL ENERGY              -54.797855407584 Eh   |
          | TOTAL ENTHALPY            -54.276067767357 Eh   |
          | TOTAL FREE ENERGY         -54.350510607065 Eh   |
          | GRADIENT NORM               0.000360537092 Eh/α |
          | HOMO-LUMO GAP              12.527074599436 eV   |
           -------------------------------------------------

 * finished run on 2024/04/23 at 12:10:55.850
