   * xtb version 6.6.1 (8d0f1dd) compiled by 'stahn@M-Bot' on 2023-08-01
          program call               : xtb unfolded.xyz --gfn 2 --ohess -P 4

   ID    Z sym.   atoms
    1    6 C      1-18
    2    1 H      19-56

          :  Hamiltonian                  GFN2-xTB          :
 * total energy  :   -57.9601134 Eh     change       -0.2521006E-10 Eh
 * total energy  :   -57.9632229 Eh     change       -0.3109551E-02 Eh
 * total energy  :   -57.9637917 Eh     change       -0.5687831E-03 Eh
 * total energy  :   -57.9638592 Eh     change       -0.6746864E-04 Eh
 * total energy  :   -57.9639355 Eh     change       -0.7633578E-04 Eh
 * total energy  :   -57.9639526 Eh     change       -0.1702822E-04 Eh
 * total energy  :   -57.9639675 Eh     change       -0.1496911E-04 Eh
 * total energy  :   -57.9639746 Eh     change       -0.7082289E-05 Eh
 * total energy  :   -57.9639850 Eh     change       -0.1036182E-04 Eh
 * total energy  :   -57.9639902 Eh     change       -0.5247757E-05 Eh
 * total energy  :   -57.9639971 Eh     change       -0.6881987E-05 Eh
 * total energy  :   -57.9640039 Eh     change       -0.6838150E-05 Eh
 * total energy  :   -57.9640084 Eh     change       -0.4435365E-05 Eh
   *** GEOMETRY OPTIMIZATION CONVERGED AFTER 13 ITERATIONS ***

 final structure:
================
56
 xtb: 6.6.1 (8d0f1dd)
C            5.52334829365809       -6.47055535649210       -1.42049978297384
C            4.19669198896940       -7.20595436644287       -1.57230601571093
C            3.45922616501074       -7.39948966239774       -0.24595644256982
C            3.07023317525527       -6.10549101013272        0.47104148294725
C            2.08491496862974       -5.24605377695055       -0.31720540500899
C            1.65313448895786       -4.01057505264733        0.46928832907798
C            0.68522691662070       -3.13670000971172       -0.32470793414132
C            0.30969890859273       -1.86199121589263        0.42679678372024
C           -0.64914945130654       -0.98616628221151       -0.37593522011667
C           -0.97667908110474        0.32022515320348        0.34280203930297
C           -1.93211506589968        1.19500184493811       -0.46543531114997
C           -2.21821669862379        2.52520849051150        0.22745392771927
C           -3.17116237916407        3.39690560697098       -0.58741397572862
C           -3.52357966623356        4.71766307344553        0.09830668461093
C           -2.35112803956263        5.69321368373642        0.17633656689547
C           -2.76824989234373        7.03509322119999        0.77354322644885
C           -1.60089295350975        8.01544316864385        0.85844557851001
C           -2.02438118941157        9.35074953414019        1.45821680729239
H            6.14401313160056       -6.95743438441064       -0.67125512130342
H            6.06386942527661       -6.46802059535409       -2.36449346270087
H            5.36599436878781       -5.43811429746309       -1.11983336455001
H            4.38757393533877       -8.19346490099629       -2.00013802090795
H            3.55948963588848       -6.66665188718358       -2.27495498597739
H            2.55350819082950       -7.98181452665763       -0.43395255286053
H            4.09492205380503       -7.98671594913562        0.42187646959752
H            3.96582858590766       -5.52175580940051        0.68971833400801
H            2.61515933903647       -6.37037294491760        1.42910491179019
H            1.20434185987558       -5.84276180191653       -0.56734504096040
H            2.54355133360920       -4.92224935653769       -1.25296200627690
H            2.53745529130199       -3.42316930042691        0.72875122736923
H            1.17876329696882       -4.32015477300210        1.40358563504290
H            1.14479653566651       -2.86706737882747       -1.27881328045471
H           -0.21984459929975       -3.70743976565173       -0.54554619618882
H            1.21733645594447       -1.29441977468108        0.64611016588698
H           -0.15208260020547       -2.12569166098309        1.38114019118333
H           -1.57314959266102       -1.53839042636687       -0.56267911889637
H           -0.20041884687094       -0.75840482252833       -1.34588471436972
H           -1.42383810757138        0.09753125237830        1.31444008285787
H           -0.05103018383496        0.87155708079869        0.52506223195018
H           -1.49705073290241        1.38895109477884       -1.44886635138534
H           -2.87020889709790        0.65691837738694       -0.62133476810659
H           -2.65608768686096        2.33405660907883        1.21006074071323
H           -1.27514989906206        3.05236755544392        0.38047905950747
H           -2.72470715955583        3.60610749286047       -1.56246810300496
H           -4.09315308203705        2.83643607197179       -0.76180100818667
H           -3.89180904492480        4.51339694921103        1.10645386995228
H           -4.33525683094662        5.19365951851105       -0.45789066392656
H           -1.95001024121176        5.85464881807648       -0.82724170363205
H           -1.55423605857760        5.26687722012461        0.78797598215690
H           -3.17555229903364        6.87295526338718        1.77447516675742
H           -3.56146743187495        7.47263428180541        0.16235713467847
H           -1.19478619795193        8.17954547187999       -0.14239294861661
H           -0.80716755589555        7.57890845857359        1.46917670075651
H           -2.80304626605801        9.81014636731261        0.85310404915296
H           -2.41291244982321        9.20986408410262        2.46455829238499
H           -1.18024716411404       10.03458934484722        1.50856582743411
           -------------------------------------------------
          |                Final Singlepoint                |
           -------------------------------------------------

          :  Hamiltonian                  GFN2-xTB          :
         :: gradient norm              0.000501899586 Eh/a0 ::
         :: HOMO-LUMO gap             11.946641111669 eV    ::
         :: SCC energy               -58.828251736166 Eh    ::
         :: -> dispersion             -0.038274730172 Eh    ::
         :: repulsion energy           0.864605408781 Eh    ::

    * Orbital Energies and Occupations

         #    Occupation            Energy/Eh            Energy/eV
      -------------------------------------------------------------
         1        2.0000           -0.6232991             -16.9608
       ...           ...                  ...                  ...
        43        2.0000           -0.4326350             -11.7726
        44        2.0000           -0.4293611             -11.6835
        45        2.0000           -0.4276276             -11.6363
        46        2.0000           -0.4261724             -11.5967
        47        2.0000           -0.4224241             -11.4947
        48        2.0000           -0.4204363             -11.4407
        49        2.0000           -0.4189714             -11.4008
        50        2.0000           -0.4185471             -11.3892
        51        2.0000           -0.4171121             -11.3502
        52        2.0000           -0.4165327             -11.3344
        53        2.0000           -0.4132817             -11.2460
        54        2.0000           -0.4117034             -11.2030
        55        2.0000           -0.4063291             -11.0568 (HOMO)
        56                          0.0327019               0.8899 (LUMO)
        57                          0.0577614               1.5718
        58                          0.0754679               2.0536
        59                          0.0946706               2.5761
        60                          0.1025944               2.7917
        61                          0.1094291               2.9777
        62                          0.1115947               3.0366
        63                          0.1123581               3.0574
        64                          0.1148217               3.1245
        65                          0.1171607               3.1881
        66                          0.1205217               3.2796
       ...                                ...                  ...
       110                          0.3285592               8.9405
      -------------------------------------------------------------
                  HL-Gap            0.4390310 Eh           11.9466 eV

     #   Z          covCN         q      C6AA      α(0)
     1   6 C        3.751    -0.101    22.490     6.763
     2   6 C        3.799    -0.052    21.516     6.604
     3   6 C        3.801    -0.058    21.609     6.618
     4   6 C        3.802    -0.058    21.613     6.619
     5   6 C        3.802    -0.058    21.618     6.620
     6   6 C        3.803    -0.058    21.617     6.619
     7   6 C        3.803    -0.058    21.617     6.619
     8   6 C        3.803    -0.058    21.619     6.620
     9   6 C        3.803    -0.058    21.621     6.620
    10   6 C        3.803    -0.058    21.618     6.619
    11   6 C        3.803    -0.058    21.624     6.620
    12   6 C        3.802    -0.059    21.629     6.621
    13   6 C        3.802    -0.058    21.620     6.620
    14   6 C        3.802    -0.058    21.618     6.620
    15   6 C        3.802    -0.059    21.629     6.621
    16   6 C        3.803    -0.059    21.636     6.622
    17   6 C        3.801    -0.053    21.521     6.605
    18   6 C        3.752    -0.102    22.510     6.766
    19   1 H        0.925     0.033     2.550     2.497
    20   1 H        0.925     0.030     2.590     2.517
    21   1 H        0.925     0.036     2.508     2.476
    22   1 H        0.924     0.026     2.641     2.542
    23   1 H        0.924     0.031     2.577     2.510
    24   1 H        0.924     0.027     2.628     2.535
    25   1 H        0.924     0.029     2.603     2.523
    26   1 H        0.924     0.033     2.545     2.495
    27   1 H        0.924     0.026     2.637     2.540
    28   1 H        0.924     0.028     2.615     2.529
    29   1 H        0.924     0.032     2.554     2.499
    30   1 H        0.924     0.028     2.616     2.529
    31   1 H        0.924     0.028     2.620     2.531
    32   1 H        0.924     0.029     2.604     2.524
    33   1 H        0.924     0.029     2.606     2.524
    34   1 H        0.924     0.029     2.601     2.522
    35   1 H        0.924     0.029     2.604     2.524
    36   1 H        0.924     0.029     2.603     2.523
    37   1 H        0.924     0.029     2.600     2.521
    38   1 H        0.924     0.029     2.602     2.523
    39   1 H        0.924     0.029     2.601     2.522
    40   1 H        0.924     0.029     2.606     2.524
    41   1 H        0.924     0.028     2.613     2.528
    42   1 H        0.924     0.029     2.596     2.520
    43   1 H        0.924     0.031     2.567     2.505
    44   1 H        0.924     0.030     2.591     2.517
    45   1 H        0.924     0.028     2.610     2.526
    46   1 H        0.924     0.030     2.592     2.518
    47   1 H        0.924     0.029     2.607     2.525
    48   1 H        0.924     0.029     2.601     2.522
    49   1 H        0.924     0.031     2.578     2.511
    50   1 H        0.924     0.029     2.598     2.520
    51   1 H        0.924     0.029     2.603     2.523
    52   1 H        0.924     0.028     2.610     2.526
    53   1 H        0.924     0.028     2.611     2.527
    54   1 H        0.925     0.033     2.543     2.494
    55   1 H        0.925     0.033     2.543     2.494
    56   1 H        0.925     0.032     2.552     2.498

Wiberg/Mayer (AO) data.
largest (>0.10) Wiberg bond orders for each atom

     #   Z sym  total        # sym  WBO       # sym  WBO       # sym  WBO
 ---------------------------------------------------------------------------
     1   6 C    3.997 --     2 C    1.020    19 H    0.988    20 H    0.988
                            21 H    0.986
     2   6 C    3.998 --     1 C    1.020     3 C    1.008    22 H    0.979
                            23 H    0.976
     3   6 C    3.997 --     2 C    1.008     4 C    1.007    24 H    0.978
                            25 H    0.977
     4   6 C    3.997 --     5 C    1.008     3 C    1.007    27 H    0.977
                            26 H    0.975
     5   6 C    3.997 --     4 C    1.008     6 C    1.007    28 H    0.978
                            29 H    0.975
     6   6 C    3.997 --     7 C    1.007     5 C    1.007    31 H    0.978
                            30 H    0.977
     7   6 C    3.997 --     6 C    1.007     8 C    1.007    33 H    0.978
                            32 H    0.977
     8   6 C    3.997 --     7 C    1.007     9 C    1.007    35 H    0.978
                            34 H    0.977
     9   6 C    3.997 --    10 C    1.007     8 C    1.007    36 H    0.978
                            37 H    0.977
    10   6 C    3.997 --     9 C    1.007    11 C    1.007    38 H    0.978
                            39 H    0.977
    11   6 C    3.997 --    10 C    1.007    12 C    1.007    41 H    0.978
                            40 H    0.977
    12   6 C    3.997 --    13 C    1.008    11 C    1.007    42 H    0.977
                            43 H    0.975
    13   6 C    3.997 --    12 C    1.008    14 C    1.006    45 H    0.977
                            44 H    0.977
    14   6 C    3.997 --    15 C    1.008    13 C    1.006    46 H    0.977
                            47 H    0.977
    15   6 C    3.998 --    14 C    1.008    16 C    1.007    48 H    0.977
                            49 H    0.976
    16   6 C    3.997 --    17 C    1.008    15 C    1.007    50 H    0.978
                            51 H    0.977
    17   6 C    3.998 --    18 C    1.019    16 C    1.008    52 H    0.979
                            53 H    0.979
    18   6 C    3.997 --    17 C    1.019    55 H    0.988    54 H    0.988
                            56 H    0.988
    19   1 H    0.999 --     1 C    0.988
    20   1 H    0.999 --     1 C    0.988
    21   1 H    0.999 --     1 C    0.986
    22   1 H    0.999 --     2 C    0.979
    23   1 H    0.999 --     2 C    0.976
    24   1 H    0.999 --     3 C    0.978
    25   1 H    0.999 --     3 C    0.977
    26   1 H    0.999 --     4 C    0.975
    27   1 H    0.999 --     4 C    0.977
    28   1 H    0.999 --     5 C    0.978
    29   1 H    0.999 --     5 C    0.975
    30   1 H    0.999 --     6 C    0.977
    31   1 H    0.999 --     6 C    0.978
    32   1 H    0.999 --     7 C    0.977
    33   1 H    0.999 --     7 C    0.978
    34   1 H    0.999 --     8 C    0.977
    35   1 H    0.999 --     8 C    0.978
    36   1 H    0.999 --     9 C    0.978
    37   1 H    0.999 --     9 C    0.977
    38   1 H    0.999 --    10 C    0.978
    39   1 H    0.999 --    10 C    0.977
    40   1 H    0.999 --    11 C    0.977
    41   1 H    0.999 --    11 C    0.978
    42   1 H    0.999 --    12 C    0.977
    43   1 H    0.999 --    12 C    0.975
    44   1 H    0.999 --    13 C    0.977
    45   1 H    0.999 --    13 C    0.977
    46   1 H    0.999 --    14 C    0.977
    47   1 H    0.999 --    14 C    0.977
    48   1 H    0.999 --    15 C    0.977
    49   1 H    0.999 --    15 C    0.976
    50   1 H    0.999 --    16 C    0.978
    51   1 H    0.999 --    16 C    0.977
    52   1 H    0.999 --    17 C    0.979
    53   1 H    0.999 --    17 C    0.979
    54   1 H    0.999 --    18 C    0.988
    55   1 H    0.999 --    18 C    0.988
    56   1 H    0.999 --    18 C    0.988
 ---------------------------------------------------------------------------

molecular dipole:
                 x           y           z       tot (Debye)
 q only:        0.024       0.012      -0.003
   full:        0.013       0.009      -0.000       0.041

 projected vibrational frequencies (cm⁻¹)
eigval :       -0.00    -0.00    -0.00     0.00     0.00     0.00
eigval :        9.28    15.28    23.31    32.23    38.99    41.30
eigval :       47.23    71.55    79.15    84.21   108.74   110.15
eigval :      119.87   120.71   138.01   144.66   150.36   154.90
eigval :      179.92   198.88   233.31   250.22   262.66   271.11
eigval :      311.66   340.52   379.38   390.93   420.48   458.24
eigval :      485.61   508.77   534.41   759.87   765.80   768.64
eigval :      771.56   778.65   790.99   800.55   823.50   852.76
eigval :      867.98   887.64   893.26   927.25   940.02   958.33
eigval :      968.57   998.47   999.89  1015.69  1030.73  1034.22
eigval :     1046.70  1055.58  1056.34  1077.71  1086.86  1091.51
eigval :     1098.85  1102.55  1109.99  1112.34  1115.72  1129.01
eigval :     1136.32  1143.11  1149.47  1159.02  1173.87  1207.20
eigval :     1214.85  1218.06  1231.63  1238.35  1250.41  1253.72
eigval :     1260.31  1266.80  1270.40  1272.93  1280.47  1282.72
eigval :     1286.25  1288.77  1291.26  1296.92  1298.20  1299.38
eigval :     1312.39  1324.23  1336.46  1351.46  1359.88  1363.12
eigval :     1367.36  1372.81  1377.08  1378.64  1379.03  1380.28
eigval :     1415.11  1416.04  1487.90  1490.92  1491.33  1494.23
eigval :     1495.16  1495.82  1496.49  1497.66  1498.16  1499.70
eigval :     1500.57  1500.92  1501.35  1502.31  1503.25  1504.71
eigval :     1505.47  1507.36  1507.99  1517.36  2953.19  2953.94
eigval :     2954.97  2955.94  2956.85  2957.21  2957.33  2958.02
eigval :     2960.73  2963.46  2965.41  2966.03  2970.05  2971.82
eigval :     2972.58  2973.27  2973.68  2974.65  2974.90  2975.50
eigval :     2977.06  2978.15  2979.59  2980.36  2981.64  2984.25
eigval :     2986.22  2989.06  2991.31  2992.39  2996.35  2997.38
eigval :     3030.46  3031.11  3032.75  3033.68  3038.19  3045.95

   temp. (K)  partition function   enthalpy   heat capacity  entropy
                                   cal/mol     cal/K/mol   cal/K/mol   J/K/mol
 298.15  VIB  0.342E+13            13647.334     74.399     91.067
         ROT  0.155E+08              888.752      2.981     35.880
         INT  0.529E+20            14536.086     77.379    126.947
         TR   0.393E+28             1481.254      4.968     42.483
         TOT                       16017.3403    82.3476   169.4299   708.8945

       T/K    H(0)-H(T)+PV         H(T)/Eh          T*S/Eh         G(T)/Eh
   ------------------------------------------------------------------------
    298.15    0.255253E-01    0.551034E+00    0.805016E-01    0.470533E+00
   ------------------------------------------------------------------------

         :::::::::::::::::::::::::::::::::::::::::::::::::::::
         ::                  THERMODYNAMIC                  ::
         :::::::::::::::::::::::::::::::::::::::::::::::::::::
         :: total free energy         -57.493475495206 Eh   ::
         ::.................................................::
         :: total energy              -57.964008374482 Eh   ::
         :: zero point energy           0.525509213499 Eh   ::
         :: G(RRHO) w/o ZPVE           -0.054976334223 Eh   ::
         :: G(RRHO) contrib.            0.470532879276 Eh   ::
         :::::::::::::::::::::::::::::::::::::::::::::::::::::

           -------------------------------------------------
          | TOTAL ENERGY              -57.964008374482 Eh   |
          | TOTAL ENTHALPY            -57.412973904401 Eh   |
          | TOTAL FREE ENERGY         -57.493475495206 Eh   |
          | GRADIENT NORM               0.000501897100 Eh/α |
          | HOMO-LUMO GAP              11.946641158853 eV   |
           -------------------------------------------------

 * finished run on 2024/04/23 at 12:11:06.819
