   * xtb version 6.6.1 (8d0f1dd) compiled by 'stahn@M-Bot' on 2023-08-01
          program call               : xtb folded.xyz --gfn 2 --ohess -P 4

   ID    Z sym.   atoms
    1    6 C      1-9
    2    1 H      10-29

          :  Hamiltonian                  GFN2-xTB          :
 * total energy  :   -29.4832273 Eh     change       -0.1462652E-10 Eh
 * total energy  :   -29.4848788 Eh     change       -0.1651495E-02 Eh
 * total energy  :   -29.4851159 Eh     change       -0.2371311E-03 Eh
 * total energy  :   -29.4851299 Eh     change       -0.1398449E-04 Eh
 * total energy  :   -29.4851485 Eh     change       -0.1857271E-04 Eh
 * total energy  :   -29.4851596 Eh     change       -0.1114914E-04 Eh
 * total energy  :   -29.4851895 Eh     change       -0.2981556E-04 Eh
 * total energy  :   -29.4852006 Eh     change       -0.1117305E-04 Eh
 * total energy  :   -29.4852061 Eh     change       -0.5519055E-05 Eh
 * total energy  :   -29.4852111 Eh     change       -0.4950267E-05 Eh
   *** GEOMETRY OPTIMIZATION CONVERGED AFTER 10 ITERATIONS ***

 final structure:
================
29
 xtb: 6.6.1 (8d0f1dd)
C           -3.43731726118402       -1.61831528382653        0.17141676363949
C           -3.58286863285919       -0.18515705395876       -0.32762041268754
C           -2.51422971297271        0.75789510063061        0.22698181468467
C           -1.10935172465959        0.44634608127289       -0.28429926734822
C           -0.08409615443515        1.45387314721716        0.23198136071523
C            1.32808944368167        1.20839324189283       -0.30191680923493
C            1.96055534030524       -0.07559524533710        0.23081091967870
C            3.40030054703443       -0.24829159552083       -0.24749964526351
C            4.01413550991704       -1.54480007630446        0.26715717766878
H           -3.41417626191896       -1.64139609250141        1.25892807784899
H           -2.52347243825810       -2.07238987130365       -0.20230149517051
H           -4.27646541357065       -2.22254075852544       -0.16602764528792
H           -4.56517559725358        0.19165327806450       -0.03237058485054
H           -3.54074462409042       -0.17540760280323       -1.41924762668845
H           -2.77223230397213        1.78252091837458       -0.05322510602444
H           -2.52051629754958        0.70421347166349        1.31835603843330
H           -1.11162262946835        0.46331192527219       -1.37696041198439
H           -0.82421388758532       -0.55519335612840        0.03629801821327
H           -0.06574365982267        1.42245726456783        1.32411005335249
H           -0.39986640134308        2.45824963196717       -0.06222520524026
H            1.96073793973261        2.05345830734479       -0.01813594913256
H            1.29950018740556        1.17188410681840       -1.39364842583787
H            1.37735208617132       -0.93782509662565       -0.09674081756302
H            1.94436121943294       -0.05778132719928        1.32326982614091
H            3.41944453234966       -0.24684906902728       -1.33987002548115
H            4.00034284951005        0.59832146922356        0.09423695697347
H            5.03784812225030       -1.65178930329577       -0.08421345466272
H            3.44109108271429       -2.40204670533073       -0.08017740355396
H            4.02145614043838       -1.55786550662152        1.35504627866270
           -------------------------------------------------
          |                Final Singlepoint                |
           -------------------------------------------------

          :  Hamiltonian                  GFN2-xTB          :
         :: gradient norm              0.000333916182 Eh/a0 ::
         :: HOMO-LUMO gap             12.760497499064 eV    ::
         :: SCC energy               -29.929449210403 Eh    ::
         :: -> dispersion             -0.017730426464 Eh    ::
         :: repulsion energy           0.444214558456 Eh    ::

    * Orbital Energies and Occupations

         #    Occupation            Energy/Eh            Energy/eV
      -------------------------------------------------------------
         1        2.0000           -0.6223333             -16.9346
       ...           ...                  ...                  ...
        16        2.0000           -0.4782825             -13.0147
        17        2.0000           -0.4705356             -12.8039
        18        2.0000           -0.4587808             -12.4841
        19        2.0000           -0.4550477             -12.3825
        20        2.0000           -0.4508364             -12.2679
        21        2.0000           -0.4395745             -11.9614
        22        2.0000           -0.4345176             -11.8238
        23        2.0000           -0.4280827             -11.6487
        24        2.0000           -0.4259384             -11.5904
        25        2.0000           -0.4229382             -11.5087
        26        2.0000           -0.4190310             -11.4024
        27        2.0000           -0.4131926             -11.2435
        28        2.0000           -0.4105056             -11.1704 (HOMO)
        29                          0.0584341               1.5901 (LUMO)
        30                          0.0781339               2.1261
        31                          0.1036165               2.8195
        32                          0.1164851               3.1697
        33                          0.1208848               3.2894
        34                          0.1258043               3.4233
        35                          0.1324716               3.6047
        36                          0.1447368               3.9385
        37                          0.1483533               4.0369
        38                          0.1557984               4.2395
        39                          0.1691593               4.6031
       ...                                ...                  ...
        56                          0.3293778               8.9628
      -------------------------------------------------------------
                  HL-Gap            0.4689397 Eh           12.7605 eV

     #   Z          covCN         q      C6AA      α(0)
     1   6 C        3.751    -0.101    22.499     6.764
     2   6 C        3.800    -0.053    21.518     6.605
     3   6 C        3.802    -0.058    21.618     6.620
     4   6 C        3.802    -0.059    21.634     6.622
     5   6 C        3.802    -0.058    21.615     6.619
     6   6 C        3.802    -0.058    21.617     6.619
     7   6 C        3.803    -0.059    21.636     6.622
     8   6 C        3.801    -0.053    21.525     6.606
     9   6 C        3.752    -0.102    22.504     6.765
    10   1 H        0.925     0.034     2.536     2.490
    11   1 H        0.925     0.034     2.529     2.487
    12   1 H        0.925     0.031     2.578     2.511
    13   1 H        0.924     0.027     2.625     2.533
    14   1 H        0.924     0.029     2.601     2.522
    15   1 H        0.924     0.026     2.645     2.543
    16   1 H        0.924     0.029     2.594     2.519
    17   1 H        0.924     0.029     2.605     2.524
    18   1 H        0.925     0.035     2.515     2.480
    19   1 H        0.924     0.029     2.603     2.523
    20   1 H        0.924     0.027     2.630     2.536
    21   1 H        0.924     0.027     2.623     2.533
    22   1 H        0.924     0.029     2.604     2.524
    23   1 H        0.924     0.032     2.563     2.504
    24   1 H        0.924     0.030     2.588     2.516
    25   1 H        0.924     0.028     2.617     2.530
    26   1 H        0.924     0.027     2.623     2.533
    27   1 H        0.925     0.032     2.557     2.500
    28   1 H        0.925     0.033     2.547     2.496
    29   1 H        0.925     0.033     2.544     2.494

Wiberg/Mayer (AO) data.
largest (>0.10) Wiberg bond orders for each atom

     #   Z sym  total        # sym  WBO       # sym  WBO       # sym  WBO
 ---------------------------------------------------------------------------
     1   6 C    3.997 --     2 C    1.020    12 H    0.988    10 H    0.988
                            11 H    0.986
     2   6 C    3.998 --     1 C    1.020     3 C    1.007    13 H    0.979
                            14 H    0.978
     3   6 C    3.997 --     4 C    1.008     2 C    1.007    15 H    0.977
                            16 H    0.977
     4   6 C    3.998 --     3 C    1.008     5 C    1.008    17 H    0.977
                            18 H    0.973
     5   6 C    3.997 --     4 C    1.008     6 C    1.006    19 H    0.977
                            20 H    0.977
     6   6 C    3.997 --     7 C    1.008     5 C    1.006    22 H    0.977
                            21 H    0.977
     7   6 C    3.997 --     6 C    1.008     8 C    1.008    24 H    0.977
                            23 H    0.975
     8   6 C    3.998 --     9 C    1.019     7 C    1.008    25 H    0.979
                            26 H    0.979
     9   6 C    3.997 --     8 C    1.019    29 H    0.988    28 H    0.988
                            27 H    0.988
    10   1 H    0.999 --     1 C    0.988
    11   1 H    0.999 --     1 C    0.986
    12   1 H    0.999 --     1 C    0.988
    13   1 H    0.999 --     2 C    0.979
    14   1 H    0.999 --     2 C    0.978
    15   1 H    0.999 --     3 C    0.977
    16   1 H    0.999 --     3 C    0.977
    17   1 H    0.999 --     4 C    0.977
    18   1 H    0.999 --     4 C    0.973
    19   1 H    0.999 --     5 C    0.977
    20   1 H    0.999 --     5 C    0.977
    21   1 H    0.999 --     6 C    0.977
    22   1 H    0.999 --     6 C    0.977
    23   1 H    0.999 --     7 C    0.975
    24   1 H    0.999 --     7 C    0.977
    25   1 H    0.999 --     8 C    0.979
    26   1 H    0.999 --     8 C    0.979
    27   1 H    0.999 --     9 C    0.988
    28   1 H    0.999 --     9 C    0.988
    29   1 H    0.999 --     9 C    0.988
 ---------------------------------------------------------------------------

molecular dipole:
                 x           y           z       tot (Debye)
 q only:       -0.003      -0.031       0.008
   full:       -0.001      -0.022       0.008       0.060

 projected vibrational frequencies (cm⁻¹)
eigval :       -0.00    -0.00    -0.00    -0.00    -0.00     0.00
eigval :       31.51    48.79    58.60    87.42   107.28   119.63
eigval :      173.86   204.07   233.94   249.32   281.77   330.49
eigval :      403.20   454.89   497.01   764.16   776.78   804.72
eigval :      818.39   856.49   927.44   931.47   936.56   984.16
eigval :      993.13  1029.24  1037.85  1084.20  1099.91  1113.00
eigval :     1127.76  1133.82  1147.73  1177.89  1195.94  1225.98
eigval :     1252.67  1267.13  1276.08  1283.45  1290.68  1293.31
eigval :     1300.61  1348.56  1352.21  1355.94  1377.07  1380.43
eigval :     1415.88  1416.56  1488.66  1490.33  1493.38  1495.74
eigval :     1498.11  1498.86  1501.14  1505.34  1507.24  1508.37
eigval :     1511.28  2955.17  2955.93  2957.09  2960.81  2962.27
eigval :     2968.94  2971.41  2974.19  2976.43  2980.28  2980.85
eigval :     2984.77  2989.98  3007.68  3028.91  3030.84  3031.79
eigval :     3034.28  3037.52  3046.74

   temp. (K)  partition function   enthalpy   heat capacity  entropy
                                   cal/mol     cal/K/mol   cal/K/mol   J/K/mol
 298.15  VIB  0.413E+05             5986.626     35.547     38.532
         ROT  0.108E+07              888.752      2.981     30.583
         INT  0.445E+11             6875.378     38.528     69.115
         TR   0.141E+28             1481.254      4.968     40.441
         TOT                        8356.6319    43.4964   109.5566   458.3848

       T/K    H(0)-H(T)+PV         H(T)/Eh          T*S/Eh         G(T)/Eh
   ------------------------------------------------------------------------
    298.15    0.133171E-01    0.285315E+00    0.520539E-01    0.233261E+00
   ------------------------------------------------------------------------

         :::::::::::::::::::::::::::::::::::::::::::::::::::::
         ::                  THERMODYNAMIC                  ::
         :::::::::::::::::::::::::::::::::::::::::::::::::::::
         :: total free energy         -29.251949810933 Eh   ::
         ::.................................................::
         :: total energy              -29.485211092761 Eh   ::
         :: zero point energy           0.271998019922 Eh   ::
         :: G(RRHO) w/o ZPVE           -0.038736738094 Eh   ::
         :: G(RRHO) contrib.            0.233261281828 Eh   ::
         :::::::::::::::::::::::::::::::::::::::::::::::::::::

           -------------------------------------------------
          | TOTAL ENERGY              -29.485211092761 Eh   |
          | TOTAL ENTHALPY            -29.199895932210 Eh   |
          | TOTAL FREE ENERGY         -29.251949810933 Eh   |
          | GRADIENT NORM               0.000333914801 Eh/α |
          | HOMO-LUMO GAP              12.760497573969 eV   |
           -------------------------------------------------

 * finished run on 2024/04/23 at 12:10:22.968
