   * xtb version 6.6.1 (8d0f1dd) compiled by 'stahn@M-Bot' on 2023-08-01
          program call               : xtb unfolded.xyz --gfn 2 --ohess -P 4

   ID    Z sym.   atoms
    1    6 C      1-7
    2    1 H      8-23

          :  Hamiltonian                  GFN2-xTB          :
 * total energy  :   -23.1568409 Eh     change       -0.1078604E-10 Eh
 * total energy  :   -23.1580535 Eh     change       -0.1212563E-02 Eh
 * total energy  :   -23.1582235 Eh     change       -0.1700820E-03 Eh
 * total energy  :   -23.1582303 Eh     change       -0.6800373E-05 Eh
 * total energy  :   -23.1582313 Eh     change       -0.9491875E-06 Eh
   *** GEOMETRY OPTIMIZATION CONVERGED AFTER 5 ITERATIONS ***

 final structure:
================
23
 xtb: 6.6.1 (8d0f1dd)
C           -3.79511225249140        0.36008771051282        0.00022625940855
C           -2.53354047787204       -0.49474804376548       -0.00011122376991
C           -1.26702574438837        0.35804082140106       -0.00130585165447
C            0.00000439276334       -0.49382149273227        0.00053689025699
C            1.26703091307096        0.35804719953771        0.00243903578713
C            2.53354958704451       -0.49473198428511       -0.00050871093103
C            3.79511441630382        0.36011341868473       -0.00122110370580
H           -3.82329210037151        0.99796838959604        0.88109803342636
H           -3.82550587011168        0.99561968168006       -0.88226595948263
H           -4.68359304996396       -0.26720298147852        0.00218624401045
H           -2.53234342145277       -1.13971022005328        0.88169063332380
H           -2.53345201027189       -1.14078295785321       -0.88112475082922
H           -1.26757600138705        1.00236684233189       -0.88383321934074
H           -1.26807708504781        1.00544435519218        0.87897223532458
H            0.00130358969175       -1.14005604430567       -0.88072113747161
H           -0.00129260213415       -1.14023031997851        0.88166058144855
H            1.26815464474315        1.00159365062441        0.88553043868766
H            1.26750123830418        1.00622928838924       -0.87726982895507
H            2.53424031149445       -1.14155500331451        0.87992152144586
H            2.53158044743691       -1.13890558795796       -0.88288933757853
H            4.68358897247855       -0.26716091365436       -0.00716194767401
H            3.82761305359988        0.99303402644873        0.88306771737771
H            3.82119204856109        1.00059616498003       -0.88027051910460
           -------------------------------------------------
          |                Final Singlepoint                |
           -------------------------------------------------

          :  Hamiltonian                  GFN2-xTB          :
         :: gradient norm              0.000211087688 Eh/a0 ::
         :: HOMO-LUMO gap             12.788171805127 eV    ::
         :: SCC energy               -23.509151703132 Eh    ::
         :: -> dispersion             -0.012606345433 Eh    ::
         :: repulsion energy           0.350975049469 Eh    ::

    * Orbital Energies and Occupations

         #    Occupation            Energy/Eh            Energy/eV
      -------------------------------------------------------------
         1        2.0000           -0.6218325             -16.9209
       ...           ...                  ...                  ...
        10        2.0000           -0.4967513             -13.5173
        11        2.0000           -0.4930046             -13.4153
        12        2.0000           -0.4822021             -13.1214
        13        2.0000           -0.4756035             -12.9418
        14        2.0000           -0.4608467             -12.5403
        15        2.0000           -0.4551189             -12.3844
        16        2.0000           -0.4487105             -12.2100
        17        2.0000           -0.4365284             -11.8785
        18        2.0000           -0.4330588             -11.7841
        19        2.0000           -0.4271680             -11.6238
        20        2.0000           -0.4204724             -11.4416
        21        2.0000           -0.4173553             -11.3568
        22        2.0000           -0.4167263             -11.3397 (HOMO)
        23                          0.0532304               1.4485 (LUMO)
        24                          0.1097168               2.9855
        25                          0.1146387               3.1195
        26                          0.1252294               3.4077
        27                          0.1340927               3.6488
        28                          0.1447791               3.9396
        29                          0.1493737               4.0647
        30                          0.1517998               4.1307
        31                          0.1755091               4.7758
        32                          0.1766234               4.8062
        33                          0.1894651               5.1556
       ...                                ...                  ...
        44                          0.3218028               8.7567
      -------------------------------------------------------------
                  HL-Gap            0.4699567 Eh           12.7882 eV

     #   Z          covCN         q      C6AA      α(0)
     1   6 C        3.752    -0.102    22.509     6.766
     2   6 C        3.801    -0.053    21.523     6.605
     3   6 C        3.803    -0.059    21.630     6.621
     4   6 C        3.803    -0.058    21.624     6.620
     5   6 C        3.803    -0.059    21.630     6.621
     6   6 C        3.801    -0.053    21.523     6.605
     7   6 C        3.752    -0.102    22.509     6.766
     8   1 H        0.925     0.033     2.542     2.493
     9   1 H        0.925     0.033     2.542     2.493
    10   1 H        0.925     0.033     2.551     2.497
    11   1 H        0.924     0.028     2.610     2.526
    12   1 H        0.924     0.028     2.610     2.526
    13   1 H        0.924     0.030     2.592     2.518
    14   1 H        0.924     0.030     2.592     2.518
    15   1 H        0.924     0.028     2.616     2.529
    16   1 H        0.924     0.028     2.616     2.529
    17   1 H        0.924     0.030     2.592     2.518
    18   1 H        0.924     0.030     2.592     2.518
    19   1 H        0.924     0.028     2.610     2.526
    20   1 H        0.924     0.028     2.610     2.526
    21   1 H        0.925     0.033     2.551     2.497
    22   1 H        0.925     0.033     2.542     2.493
    23   1 H        0.925     0.033     2.542     2.493

Wiberg/Mayer (AO) data.
largest (>0.10) Wiberg bond orders for each atom

     #   Z sym  total        # sym  WBO       # sym  WBO       # sym  WBO
 ---------------------------------------------------------------------------
     1   6 C    3.997 --     2 C    1.019     9 H    0.988     8 H    0.988
                            10 H    0.988
     2   6 C    3.998 --     1 C    1.019     3 C    1.008    12 H    0.979
                            11 H    0.979
     3   6 C    3.997 --     2 C    1.008     4 C    1.007    13 H    0.978
                            14 H    0.978
     4   6 C    3.997 --     3 C    1.007     5 C    1.007    16 H    0.978
                            15 H    0.978
     5   6 C    3.997 --     6 C    1.008     4 C    1.007    17 H    0.978
                            18 H    0.978
     6   6 C    3.998 --     7 C    1.019     5 C    1.008    19 H    0.979
                            20 H    0.979
     7   6 C    3.997 --     6 C    1.019    22 H    0.988    23 H    0.988
                            21 H    0.988
     8   1 H    0.999 --     1 C    0.988
     9   1 H    0.999 --     1 C    0.988
    10   1 H    0.999 --     1 C    0.988
    11   1 H    0.999 --     2 C    0.979
    12   1 H    0.999 --     2 C    0.979
    13   1 H    0.999 --     3 C    0.978
    14   1 H    0.999 --     3 C    0.978
    15   1 H    0.999 --     4 C    0.978
    16   1 H    0.999 --     4 C    0.978
    17   1 H    0.999 --     5 C    0.978
    18   1 H    0.999 --     5 C    0.978
    19   1 H    0.999 --     6 C    0.979
    20   1 H    0.999 --     6 C    0.979
    21   1 H    0.999 --     7 C    0.988
    22   1 H    0.999 --     7 C    0.988
    23   1 H    0.999 --     7 C    0.988
 ---------------------------------------------------------------------------

molecular dipole:
                 x           y           z       tot (Debye)
 q only:        0.000       0.012      -0.000
   full:        0.000       0.010      -0.000       0.025

 projected vibrational frequencies (cm⁻¹)
eigval :       -0.00    -0.00    -0.00     0.00     0.00     0.00
eigval :       58.50    70.77   102.59   128.67   133.62   232.94
eigval :      234.03   249.83   306.41   418.96   479.93   768.71
eigval :      777.57   812.27   876.17   930.63   950.26   952.31
eigval :     1013.44  1050.21  1088.05  1100.32  1113.29  1114.07
eigval :     1148.43  1199.55  1222.23  1248.59  1259.45  1275.04
eigval :     1290.79  1293.70  1300.29  1345.04  1373.34  1379.62
eigval :     1416.04  1416.31  1495.83  1496.51  1498.95  1500.96
eigval :     1504.08  1504.87  1504.91  1507.89  1508.15  2953.07
eigval :     2956.65  2961.88  2969.97  2973.15  2973.35  2977.50
eigval :     2977.94  2981.45  2988.77  3029.67  3029.98  3031.96
eigval :     3032.46  3037.40  3038.01

   temp. (K)  partition function   enthalpy   heat capacity  entropy
                                   cal/mol     cal/K/mol   cal/K/mol   J/K/mol
 298.15  VIB  0.102E+04             4367.397     27.332     27.792
         ROT  0.172E+06              888.752      2.981     26.940
         INT  0.175E+09             5256.150     30.313     54.732
         TR   0.970E+27             1481.254      4.968     39.706
         TOT                        6737.4037    35.2815    94.4377   395.1272

       T/K    H(0)-H(T)+PV         H(T)/Eh          T*S/Eh         G(T)/Eh
   ------------------------------------------------------------------------
    298.15    0.107367E-01    0.226177E+00    0.448704E-01    0.181307E+00
   ------------------------------------------------------------------------

         :::::::::::::::::::::::::::::::::::::::::::::::::::::
         ::                  THERMODYNAMIC                  ::
         :::::::::::::::::::::::::::::::::::::::::::::::::::::
         :: total free energy         -22.976924697732 Eh   ::
         ::.................................................::
         :: total energy              -23.158231291425 Eh   ::
         :: zero point energy           0.215440236583 Eh   ::
         :: G(RRHO) w/o ZPVE           -0.034133642890 Eh   ::
         :: G(RRHO) contrib.            0.181306593693 Eh   ::
         :::::::::::::::::::::::::::::::::::::::::::::::::::::

           -------------------------------------------------
          | TOTAL ENERGY              -23.158231291425 Eh   |
          | TOTAL ENTHALPY            -22.932054318687 Eh   |
          | TOTAL FREE ENERGY         -22.976924697732 Eh   |
          | GRADIENT NORM               0.000211089453 Eh/α |
          | HOMO-LUMO GAP              12.788171727777 eV   |
           -------------------------------------------------

 * finished run on 2024/04/23 at 12:10:20.988
