   * xtb version 6.6.1 (8d0f1dd) compiled by 'stahn@M-Bot' on 2023-08-01
          program call               : xtb folded.xyz --gfn 2 --ohess -P 4

   ID    Z sym.   atoms
    1    6 C      1-10
    2    1 H      11-32

          :  Hamiltonian                  GFN2-xTB          :
 * total energy  :   -32.6459754 Eh     change       -0.1990941E-10 Eh
 * total energy  :   -32.6478098 Eh     change       -0.1834410E-02 Eh
 * total energy  :   -32.6480757 Eh     change       -0.2658297E-03 Eh
 * total energy  :   -32.6480926 Eh     change       -0.1693856E-04 Eh
 * total energy  :   -32.6481151 Eh     change       -0.2252011E-04 Eh
 * total energy  :   -32.6481238 Eh     change       -0.8702471E-05 Eh
 * total energy  :   -32.6481405 Eh     change       -0.1670894E-04 Eh
 * total energy  :   -32.6481468 Eh     change       -0.6287754E-05 Eh
 * total energy  :   -32.6481651 Eh     change       -0.1830342E-04 Eh
 * total energy  :   -32.6481718 Eh     change       -0.6721900E-05 Eh
 * total energy  :   -32.6481795 Eh     change       -0.7700483E-05 Eh
 * total energy  :   -32.6481858 Eh     change       -0.6212939E-05 Eh
 * total energy  :   -32.6481901 Eh     change       -0.4370235E-05 Eh
   *** GEOMETRY OPTIMIZATION CONVERGED AFTER 13 ITERATIONS ***

 final structure:
================
32
 xtb: 6.6.1 (8d0f1dd)
C            2.22721004086483       -2.01801548299052       -0.00489325161099
C            2.90128673970205       -0.82282784748547        0.65960069884292
C            2.95259190027737        0.41756765545133       -0.23504492208632
C            1.58580539754512        0.95903929669530       -0.65657599474999
C            0.76417688267104        1.49141245105927        0.51486883274945
C           -0.56135408429658        2.12115919761997        0.08287100886839
C           -1.53130709835705        1.16278352517380       -0.61174635213521
C           -1.93848089335881       -0.02768682652004        0.25328270719029
C           -2.97735500651244       -0.90604905555007       -0.43976023520990
C           -3.36138959136834       -2.10913935905767        0.41311411110502
H            2.68300483731529       -2.22340513982979       -0.97107662925266
H            2.33037446023738       -2.90367822925620        0.61799593534739
H            1.16662620455796       -1.83665921471729       -0.15726124468583
H            2.38577588382538       -0.58620789352175        1.59188630668498
H            3.92749848264093       -1.09636061055454        0.91780808468113
H            3.49799613370591        1.20462849934561        0.29217547548858
H            3.52051949307935        0.17112340099139       -1.13608530156068
H            1.74201855878329        1.77112944721404       -1.37168974893480
H            1.03399598845252        0.17319941375444       -1.17109570611561
H            1.35094368535685        2.25135052156872        1.03807683146048
H            0.56498719369883        0.68922313608114        1.22508905710585
H           -0.35260641956156        2.95268120488362       -0.59536062319591
H           -1.05215850705562        2.53446044661955        0.96793570892973
H           -2.43026770700320        1.72397362521491       -0.88073458758086
H           -1.08924352840214        0.79983770832688       -1.54143707690099
H           -2.34496272460026        0.33533927060846        1.20041635170539
H           -1.06268308606185       -0.63782618398548        0.48026586922381
H           -3.86937191417735       -0.31292318025638       -0.65423561598057
H           -2.57498361345757       -1.25278041251647       -1.39480156451289
H           -3.79029323404823       -1.78484462616239        1.35890614043593
H           -4.09332728147285       -2.72724002509879       -0.10172820763967
H           -2.48670219298015       -2.72008771310555        0.62700294233352
           -------------------------------------------------
          |                Final Singlepoint                |
           -------------------------------------------------

          :  Hamiltonian                  GFN2-xTB          :
         :: gradient norm              0.000395563247 Eh/a0 ::
         :: HOMO-LUMO gap             12.955596048361 eV    ::
         :: SCC energy               -33.139306995288 Eh    ::
         :: -> dispersion             -0.021585121470 Eh    ::
         :: repulsion energy           0.490829782871 Eh    ::

    * Orbital Energies and Occupations

         #    Occupation            Energy/Eh            Energy/eV
      -------------------------------------------------------------
         1        2.0000           -0.6228919             -16.9498
       ...           ...                  ...                  ...
        19        2.0000           -0.4658785             -12.6772
        20        2.0000           -0.4621774             -12.5765
        21        2.0000           -0.4606061             -12.5337
        22        2.0000           -0.4465217             -12.1505
        23        2.0000           -0.4422493             -12.0342
        24        2.0000           -0.4375679             -11.9068
        25        2.0000           -0.4308333             -11.7236
        26        2.0000           -0.4273420             -11.6286
        27        2.0000           -0.4218289             -11.4785
        28        2.0000           -0.4201017             -11.4315
        29        2.0000           -0.4150860             -11.2951
        30        2.0000           -0.4107583             -11.1773
        31        2.0000           -0.4089390             -11.1278 (HOMO)
        32                          0.0671704               1.8278 (LUMO)
        33                          0.0783335               2.1316
        34                          0.0950740               2.5871
        35                          0.1010857               2.7507
        36                          0.1100366               2.9942
        37                          0.1187301               3.2308
        38                          0.1224840               3.3330
        39                          0.1330183               3.6196
        40                          0.1425678               3.8795
        41                          0.1487358               4.0473
        42                          0.1524595               4.1486
       ...                                ...                  ...
        62                          0.3317872               9.0284
      -------------------------------------------------------------
                  HL-Gap            0.4761094 Eh           12.9556 eV

     #   Z          covCN         q      C6AA      α(0)
     1   6 C        3.751    -0.099    22.461     6.759
     2   6 C        3.799    -0.052    21.506     6.603
     3   6 C        3.801    -0.057    21.607     6.618
     4   6 C        3.801    -0.058    21.619     6.620
     5   6 C        3.801    -0.058    21.614     6.619
     6   6 C        3.801    -0.057    21.604     6.618
     7   6 C        3.801    -0.057    21.606     6.618
     8   6 C        3.803    -0.058    21.612     6.619
     9   6 C        3.801    -0.053    21.517     6.604
    10   6 C        3.752    -0.101    22.498     6.764
    11   1 H        0.925     0.032     2.555     2.500
    12   1 H        0.925     0.029     2.601     2.522
    13   1 H        0.925     0.035     2.518     2.481
    14   1 H        0.924     0.030     2.589     2.516
    15   1 H        0.924     0.025     2.651     2.546
    16   1 H        0.924     0.026     2.647     2.544
    17   1 H        0.924     0.028     2.618     2.530
    18   1 H        0.924     0.025     2.652     2.547
    19   1 H        0.925     0.038     2.478     2.462
    20   1 H        0.924     0.026     2.649     2.545
    21   1 H        0.925     0.035     2.519     2.482
    22   1 H        0.924     0.027     2.629     2.536
    23   1 H        0.924     0.027     2.626     2.534
    24   1 H        0.924     0.026     2.646     2.544
    25   1 H        0.924     0.030     2.589     2.516
    26   1 H        0.924     0.029     2.606     2.524
    27   1 H        0.924     0.033     2.547     2.496
    28   1 H        0.924     0.027     2.631     2.537
    29   1 H        0.924     0.027     2.632     2.537
    30   1 H        0.925     0.033     2.547     2.496
    31   1 H        0.925     0.032     2.561     2.502
    32   1 H        0.925     0.033     2.549     2.497

Wiberg/Mayer (AO) data.
largest (>0.10) Wiberg bond orders for each atom

     #   Z sym  total        # sym  WBO       # sym  WBO       # sym  WBO
 ---------------------------------------------------------------------------
     1   6 C    3.997 --     2 C    1.020    11 H    0.988    12 H    0.988
                            13 H    0.985
     2   6 C    3.998 --     1 C    1.020     3 C    1.008    15 H    0.979
                            14 H    0.976
     3   6 C    3.998 --     2 C    1.008     4 C    1.007    17 H    0.978
                            16 H    0.978
     4   6 C    3.997 --     5 C    1.009     3 C    1.007    18 H    0.977
                            19 H    0.972
     5   6 C    3.998 --     4 C    1.009     6 C    1.007    20 H    0.977
                            21 H    0.972
     6   6 C    3.997 --     5 C    1.007     7 C    1.007    23 H    0.978
                            22 H    0.977
     7   6 C    3.998 --     8 C    1.008     6 C    1.007    24 H    0.977
                            25 H    0.975
     8   6 C    3.998 --     7 C    1.008     9 C    1.008    26 H    0.978
                            27 H    0.973
     9   6 C    3.998 --    10 C    1.019     8 C    1.008    29 H    0.979
                            28 H    0.979
    10   6 C    3.997 --     9 C    1.019    30 H    0.988    32 H    0.988
                            31 H    0.988
    11   1 H    0.999 --     1 C    0.988
    12   1 H    0.999 --     1 C    0.988
    13   1 H    0.999 --     1 C    0.985
    14   1 H    0.999 --     2 C    0.976
    15   1 H    0.999 --     2 C    0.979
    16   1 H    0.999 --     3 C    0.978
    17   1 H    0.999 --     3 C    0.978
    18   1 H    0.999 --     4 C    0.977
    19   1 H    0.999 --     4 C    0.972
    20   1 H    0.999 --     5 C    0.977
    21   1 H    0.999 --     5 C    0.972
    22   1 H    0.999 --     6 C    0.977
    23   1 H    0.999 --     6 C    0.978
    24   1 H    0.999 --     7 C    0.977
    25   1 H    0.999 --     7 C    0.975
    26   1 H    0.999 --     8 C    0.978
    27   1 H    0.999 --     8 C    0.973
    28   1 H    0.999 --     9 C    0.979
    29   1 H    0.999 --     9 C    0.979
    30   1 H    0.999 --    10 C    0.988
    31   1 H    0.999 --    10 C    0.988
    32   1 H    0.999 --    10 C    0.988
 ---------------------------------------------------------------------------

molecular dipole:
                 x           y           z       tot (Debye)
 q only:       -0.002      -0.026       0.003
   full:       -0.003      -0.019       0.002       0.048

 projected vibrational frequencies (cm⁻¹)
eigval :       -0.00     0.00     0.00     0.00     0.00     0.00
eigval :       20.15    29.62    50.56    64.91   105.82   140.12
eigval :      161.02   202.93   232.90   244.10   256.51   273.81
eigval :      327.86   398.51   401.36   462.47   517.07   749.24
eigval :      771.64   793.19   826.66   855.89   871.28   903.44
eigval :      931.02   948.80   960.21  1010.33  1019.05  1044.57
eigval :     1065.47  1085.17  1092.23  1113.51  1139.10  1147.38
eigval :     1156.66  1157.91  1176.64  1215.83  1233.02  1254.34
eigval :     1271.54  1276.52  1286.03  1289.15  1291.82  1315.02
eigval :     1349.03  1352.94  1359.57  1364.71  1375.56  1377.76
eigval :     1414.62  1416.89  1487.70  1490.15  1492.17  1497.61
eigval :     1498.85  1501.35  1503.17  1505.36  1505.84  1507.27
eigval :     1508.18  1517.78  2954.45  2955.38  2956.27  2958.42
eigval :     2959.59  2961.70  2964.72  2971.43  2975.03  2976.73
eigval :     2977.64  2987.10  2989.82  2991.63  3007.39  3011.34
eigval :     3028.24  3031.51  3032.09  3034.27  3037.32  3045.74

   temp. (K)  partition function   enthalpy   heat capacity  entropy
                                   cal/mol     cal/K/mol   cal/K/mol   J/K/mol
 298.15  VIB  0.237E+06             6637.539     39.296     42.234
         ROT  0.131E+07              888.752      2.981     30.968
         INT  0.310E+12             7526.291     42.277     73.203
         TR   0.164E+28             1481.254      4.968     40.751
         TOT                        9007.5451    47.2453   113.9532   476.7802

       T/K    H(0)-H(T)+PV         H(T)/Eh          T*S/Eh         G(T)/Eh
   ------------------------------------------------------------------------
    298.15    0.143544E-01    0.315019E+00    0.541428E-01    0.260877E+00
   ------------------------------------------------------------------------

         :::::::::::::::::::::::::::::::::::::::::::::::::::::
         ::                  THERMODYNAMIC                  ::
         :::::::::::::::::::::::::::::::::::::::::::::::::::::
         :: total free energy         -32.387313477295 Eh   ::
         ::.................................................::
         :: total energy              -32.648190132524 Eh   ::
         :: zero point energy           0.300665063116 Eh   ::
         :: G(RRHO) w/o ZPVE           -0.039788407887 Eh   ::
         :: G(RRHO) contrib.            0.260876655229 Eh   ::
         :::::::::::::::::::::::::::::::::::::::::::::::::::::

           -------------------------------------------------
          | TOTAL ENERGY              -32.648190132524 Eh   |
          | TOTAL ENTHALPY            -32.333170632619 Eh   |
          | TOTAL FREE ENERGY         -32.387313477295 Eh   |
          | GRADIENT NORM               0.000395562477 Eh/α |
          | HOMO-LUMO GAP              12.955595967687 eV   |
           -------------------------------------------------

 * finished run on 2024/04/20 at 10:58:21.240
