   * xtb version 6.6.1 (8d0f1dd) compiled by 'stahn@M-Bot' on 2023-08-01
          program call               : xtb unfolded.xyz --gfn 2 --ohess -P 4

   ID    Z sym.   atoms
    1    6 C      1-6
    2    1 H      7-20

          :  Hamiltonian                  GFN2-xTB          :
 * total energy  :   -19.9926691 Eh     change       -0.4912337E-10 Eh
 * total energy  :   -19.9937010 Eh     change       -0.1031866E-02 Eh
 * total energy  :   -19.9938321 Eh     change       -0.1311829E-03 Eh
 * total energy  :   -19.9938367 Eh     change       -0.4594086E-05 Eh
   *** GEOMETRY OPTIMIZATION CONVERGED AFTER 4 ITERATIONS ***

 final structure:
================
20
 xtb: 6.6.1 (8d0f1dd)
C            3.18254756984211        0.22312803794822       -0.00019308703285
C            1.86855568674036       -0.54876221470802       -0.00104768016175
C            0.65958125972183        0.38383680308190        0.00223735351395
C           -0.65976387195105       -0.38426808568584        0.00133456120800
C           -1.86848180092061        0.54868477220447       -0.00234545746585
C           -3.18286212908246       -0.22252639308493        0.00026476850503
H            3.25502744468751        0.85217632257572        0.88440338755919
H            3.25092988357951        0.86089575632831       -0.87886504276371
H            4.02835235262461       -0.46055496505862       -0.00554065234998
H            1.82587802460383       -1.19010033650297       -0.88427525324567
H            1.82739089868835       -1.19487557791764        0.87875884588618
H            0.70138322552826        1.03018260415064       -0.87772777174250
H            0.70268666106630        1.02598772378833        0.88518349258778
H           -0.70379665897919       -1.02721581481901        0.88366022713009
H           -0.70085892960473       -1.02979681346134       -0.87925751183571
H           -1.82651098620959        1.19576530788565        0.87670594205811
H           -1.82604537477747        1.18901205152030       -0.88631194336244
H           -3.25585571706524       -0.84928369003846        0.88644218987144
H           -4.02827388304780        0.46161987662483       -0.00695705766610
H           -3.25148265544453       -0.86248836483154       -0.87678931069320
           -------------------------------------------------
          |                Final Singlepoint                |
           -------------------------------------------------

          :  Hamiltonian                  GFN2-xTB          :
         :: gradient norm              0.000611651828 Eh/a0 ::
         :: HOMO-LUMO gap             13.017846392342 eV    ::
         :: SCC energy               -20.298295756122 Eh    ::
         :: -> dispersion             -0.010396841106 Eh    ::
         :: repulsion energy           0.304479142711 Eh    ::

    * Orbital Energies and Occupations

         #    Occupation            Energy/Eh            Energy/eV
      -------------------------------------------------------------
         1        2.0000           -0.6211411             -16.9021
       ...           ...                  ...                  ...
         7        2.0000           -0.5197399             -14.1428
         8        2.0000           -0.5002974             -13.6138
         9        2.0000           -0.4980211             -13.5518
        10        2.0000           -0.4895516             -13.3214
        11        2.0000           -0.4710820             -12.8188
        12        2.0000           -0.4653491             -12.6628
        13        2.0000           -0.4625216             -12.5859
        14        2.0000           -0.4421939             -12.0327
        15        2.0000           -0.4386644             -11.9367
        16        2.0000           -0.4289594             -11.6726
        17        2.0000           -0.4236157             -11.5272
        18        2.0000           -0.4199477             -11.4274
        19        2.0000           -0.4170700             -11.3491 (HOMO)
        20                          0.0613270               1.6688 (LUMO)
        21                          0.1138080               3.0969
        22                          0.1168127               3.1786
        23                          0.1307125               3.5569
        24                          0.1500883               4.0841
        25                          0.1568778               4.2689
        26                          0.1571457               4.2762
        27                          0.1662746               4.5246
        28                          0.1826328               4.9697
        29                          0.1839911               5.0067
        30                          0.1952396               5.3127
       ...                                ...                  ...
        38                          0.3200778               8.7098
      -------------------------------------------------------------
                  HL-Gap            0.4783970 Eh           13.0178 eV

     #   Z          covCN         q      C6AA      α(0)
     1   6 C        3.752    -0.102    22.509     6.766
     2   6 C        3.801    -0.053    21.522     6.605
     3   6 C        3.803    -0.059    21.635     6.622
     4   6 C        3.803    -0.059    21.635     6.622
     5   6 C        3.801    -0.053    21.522     6.605
     6   6 C        3.752    -0.102    22.509     6.766
     7   1 H        0.925     0.033     2.543     2.494
     8   1 H        0.925     0.033     2.543     2.494
     9   1 H        0.925     0.032     2.551     2.498
    10   1 H        0.924     0.028     2.609     2.526
    11   1 H        0.924     0.028     2.609     2.526
    12   1 H        0.924     0.029     2.598     2.521
    13   1 H        0.924     0.029     2.598     2.521
    14   1 H        0.924     0.029     2.598     2.521
    15   1 H        0.924     0.029     2.599     2.521
    16   1 H        0.924     0.028     2.609     2.526
    17   1 H        0.924     0.028     2.609     2.526
    18   1 H        0.925     0.033     2.543     2.494
    19   1 H        0.925     0.032     2.551     2.498
    20   1 H        0.925     0.033     2.543     2.494

Wiberg/Mayer (AO) data.
largest (>0.10) Wiberg bond orders for each atom

     #   Z sym  total        # sym  WBO       # sym  WBO       # sym  WBO
 ---------------------------------------------------------------------------
     1   6 C    3.997 --     2 C    1.019     7 H    0.988     8 H    0.988
                             9 H    0.988
     2   6 C    3.998 --     1 C    1.019     3 C    1.008    11 H    0.979
                            10 H    0.979
     3   6 C    3.997 --     2 C    1.008     4 C    1.007    13 H    0.978
                            12 H    0.978
     4   6 C    3.997 --     5 C    1.008     3 C    1.007    14 H    0.978
                            15 H    0.978
     5   6 C    3.998 --     6 C    1.019     4 C    1.008    17 H    0.979
                            16 H    0.979
     6   6 C    3.997 --     5 C    1.019    18 H    0.988    20 H    0.988
                            19 H    0.988
     7   1 H    0.999 --     1 C    0.988
     8   1 H    0.999 --     1 C    0.988
     9   1 H    0.999 --     1 C    0.988
    10   1 H    0.999 --     2 C    0.979
    11   1 H    0.999 --     2 C    0.979
    12   1 H    0.999 --     3 C    0.978
    13   1 H    0.999 --     3 C    0.978
    14   1 H    0.999 --     4 C    0.978
    15   1 H    0.999 --     4 C    0.978
    16   1 H    0.999 --     5 C    0.979
    17   1 H    0.999 --     5 C    0.979
    18   1 H    0.999 --     6 C    0.988
    19   1 H    0.999 --     6 C    0.988
    20   1 H    0.999 --     6 C    0.988
 ---------------------------------------------------------------------------

molecular dipole:
                 x           y           z       tot (Debye)
 q only:        0.000       0.000      -0.000
   full:       -0.000       0.000      -0.000       0.000

 projected vibrational frequencies (cm⁻¹)
eigval :       -0.00    -0.00    -0.00     0.00     0.00     0.00
eigval :       67.88    92.59   134.82   135.58   227.37   237.02
eigval :      301.37   370.78   465.00   769.07   785.96   842.46
eigval :      926.11   940.05   942.02  1003.99  1074.48  1079.90
eigval :     1108.54  1118.84  1150.13  1200.17  1229.88  1260.46
eigval :     1268.68  1283.72  1292.96  1319.56  1364.09  1379.42
eigval :     1415.97  1416.12  1495.82  1496.44  1500.13  1502.60
eigval :     1504.80  1504.85  1507.81  1508.07  2955.32  2960.39
eigval :     2968.78  2975.33  2975.53  2978.23  2981.62  2988.70
eigval :     3030.23  3030.73  3032.41  3032.99  3037.74  3038.52

   temp. (K)  partition function   enthalpy   heat capacity  entropy
                                   cal/mol     cal/K/mol   cal/K/mol   J/K/mol
 298.15  VIB   195.                 3524.534     22.809     22.018
         ROT  0.100E+06              888.752      2.981     25.867
         INT  0.196E+08             4413.286     25.790     47.885
         TR   0.774E+27             1481.254      4.968     39.257
         TOT                        5894.5402    30.7578    87.1422   364.6028

       T/K    H(0)-H(T)+PV         H(T)/Eh          T*S/Eh         G(T)/Eh
   ------------------------------------------------------------------------
    298.15    0.939355E-02    0.196686E+00    0.414040E-01    0.155282E+00
   ------------------------------------------------------------------------

         :::::::::::::::::::::::::::::::::::::::::::::::::::::
         ::                  THERMODYNAMIC                  ::
         :::::::::::::::::::::::::::::::::::::::::::::::::::::
         :: total free energy         -19.838554520754 Eh   ::
         ::.................................................::
         :: total energy              -19.993836739218 Eh   ::
         :: zero point energy           0.187292720011 Eh   ::
         :: G(RRHO) w/o ZPVE           -0.032010501547 Eh   ::
         :: G(RRHO) contrib.            0.155282218464 Eh   ::
         :::::::::::::::::::::::::::::::::::::::::::::::::::::

           -------------------------------------------------
          | TOTAL ENERGY              -19.993836739218 Eh   |
          | TOTAL ENTHALPY            -19.797150471544 Eh   |
          | TOTAL FREE ENERGY         -19.838554520754 Eh   |
          | GRADIENT NORM               0.000611653927 Eh/α |
          | HOMO-LUMO GAP              13.017846326153 eV   |
           -------------------------------------------------

 * finished run on 2024/04/23 at 12:10:20.046
