   * xtb version 6.6.1 (8d0f1dd) compiled by 'stahn@M-Bot' on 2023-08-01
          program call               : xtb unfolded.xyz --gfn 2 --ohess -P 4

   ID    Z sym.   atoms
    1    6 C      1-14
    2    1 H      15-44

          :  Hamiltonian                  GFN2-xTB          :
 * total energy  :   -45.3052717 Eh     change       -0.2349978E-09 Eh
 * total energy  :   -45.3076667 Eh     change       -0.2395054E-02 Eh
 * total energy  :   -45.3080859 Eh     change       -0.4191674E-03 Eh
 * total energy  :   -45.3081254 Eh     change       -0.3948066E-04 Eh
 * total energy  :   -45.3081587 Eh     change       -0.3335686E-04 Eh
 * total energy  :   -45.3081340 Eh     change        0.2475038E-04 Eh
 * total energy  :   -45.3081657 Eh     change       -0.3169237E-04 Eh
 * total energy  :   -45.3081695 Eh     change       -0.3852270E-05 Eh
   *** GEOMETRY OPTIMIZATION CONVERGED AFTER 8 ITERATIONS ***

 final structure:
================
44
 xtb: 6.6.1 (8d0f1dd)
C            6.98021710201613        2.22484569226821        0.21240297686445
C            6.32983437389305        0.92711966070837       -0.25127797939984
C            4.88043380858687        0.82140654269493        0.21586915162188
C            4.20994914697947       -0.46591315183295       -0.25766537717878
C            2.76325195820547       -0.56142124511684        0.22104877342827
C            2.07502394083750       -1.82875659629397       -0.28107670760516
C            0.65314473974321       -1.99893143035514        0.25582904453704
C           -0.31643656600576       -0.93487195985053       -0.25331794417953
C           -1.74248610787034       -1.17556716300845        0.23611567767050
C           -2.69716552265881       -0.08552219406885       -0.24485110751870
C           -4.12456785050206       -0.30387049473161        0.24984925495041
C           -5.06531651265674        0.80588301009494       -0.21298194542825
C           -6.49487178629374        0.59317043813205        0.27844504254181
C           -7.42261348736766        1.71525503382871       -0.17112309455414
H            6.96900451668354        2.28992382346303        1.29836691783414
H            8.01297141499633        2.27911608406902       -0.12412847371243
H            6.44374310040226        3.08337193267362       -0.18614337290651
H            6.89670538140461        0.07762416790689        0.13666926474158
H            6.36175654060922        0.87475655765741       -1.34208523354034
H            4.85038386467193        0.86289485608628        1.30745352637758
H            4.31833730486051        1.67925922078907       -0.16157494965623
H            4.77370048977733       -1.32580881097468        0.11233789172578
H            4.23155651462289       -0.50355852819712       -1.34960794429326
H            2.21964153555395        0.31685958328472       -0.13085606570446
H            2.74353569824367       -0.54975893026582        1.31353935270157
H            2.66935165110087       -2.69406753108148        0.02358642443482
H            2.04867300587110       -1.81637900038586       -1.37336555611093
H            0.67521579511484       -1.97369000742414        1.34800278095602
H            0.28204841358039       -2.98275621610074       -0.04275340702368
H           -0.30589040980059       -0.93097384899068       -1.34595723256831
H            0.00743448968584        0.05036506704942        0.08592664781019
H           -1.74844422240454       -1.20391853670416        1.32848102126313
H           -2.09178458343473       -2.14762559270828       -0.12025389196574
H           -2.33982745581063        0.88516310466194        0.10786520106699
H           -2.69378732234018       -0.05973455114714       -1.33725195718947
H           -4.12551314490168       -0.34515869616411        1.34184994156355
H           -4.49150451332299       -1.26588529201194       -0.11600113614498
H           -4.69747766208504        1.76649473526969        0.15599832762115
H           -5.06226165717665        0.84984998863784       -1.30484107765406
H           -6.86812693083136       -0.36083172025959       -0.10112571585510
H           -6.49568219433031        0.53722914964766        1.36955431231717
H           -7.07792286900528        2.67226801797777        0.21487931910600
H           -7.45014009844518        1.77545835620082       -1.25705405182404
H           -8.43449489019674        1.54435747457170        0.18901137087990
           -------------------------------------------------
          |                Final Singlepoint                |
           -------------------------------------------------

          :  Hamiltonian                  GFN2-xTB          :
         :: gradient norm              0.000226496568 Eh/a0 ::
         :: HOMO-LUMO gap             12.232737917894 eV    ::
         :: SCC energy               -45.985752783843 Eh    ::
         :: -> dispersion             -0.028562255891 Eh    ::
         :: repulsion energy           0.677861569028 Eh    ::

    * Orbital Energies and Occupations

         #    Occupation            Energy/Eh            Energy/eV
      -------------------------------------------------------------
         1        2.0000           -0.6232918             -16.9606
       ...           ...                  ...                  ...
        31        2.0000           -0.4436751             -12.0730
        32        2.0000           -0.4368472             -11.8872
        33        2.0000           -0.4354957             -11.8504
        34        2.0000           -0.4336090             -11.7991
        35        2.0000           -0.4294037             -11.6847
        36        2.0000           -0.4269807             -11.6187
        37        2.0000           -0.4242478             -11.5444
        38        2.0000           -0.4209003             -11.4533
        39        2.0000           -0.4189410             -11.4000
        40        2.0000           -0.4173823             -11.3576
        41        2.0000           -0.4166310             -11.3371
        42        2.0000           -0.4115297             -11.1983
        43        2.0000           -0.4099475             -11.1552 (HOMO)
        44                          0.0395973               1.0775 (LUMO)
        45                          0.0546078               1.4860
        46                          0.0998009               2.7157
        47                          0.1044157               2.8413
        48                          0.1094510               2.9783
        49                          0.1125570               3.0628
        50                          0.1175942               3.1999
        51                          0.1194577               3.2506
        52                          0.1249504               3.4001
        53                          0.1332098               3.6248
        54                          0.1342562               3.6533
       ...                                ...                  ...
        86                          0.3271490               8.9022
      -------------------------------------------------------------
                  HL-Gap            0.4495448 Eh           12.2327 eV

     #   Z          covCN         q      C6AA      α(0)
     1   6 C        3.752    -0.102    22.509     6.766
     2   6 C        3.801    -0.053    21.523     6.605
     3   6 C        3.803    -0.059    21.631     6.621
     4   6 C        3.803    -0.058    21.624     6.620
     5   6 C        3.803    -0.059    21.629     6.621
     6   6 C        3.802    -0.058    21.617     6.619
     7   6 C        3.802    -0.058    21.617     6.619
     8   6 C        3.803    -0.059    21.632     6.622
     9   6 C        3.803    -0.058    21.622     6.620
    10   6 C        3.803    -0.058    21.616     6.619
    11   6 C        3.803    -0.058    21.622     6.620
    12   6 C        3.803    -0.059    21.633     6.622
    13   6 C        3.801    -0.053    21.523     6.605
    14   6 C        3.752    -0.102    22.510     6.766
    15   1 H        0.925     0.033     2.542     2.493
    16   1 H        0.925     0.032     2.551     2.498
    17   1 H        0.925     0.033     2.542     2.494
    18   1 H        0.924     0.028     2.611     2.527
    19   1 H        0.924     0.028     2.609     2.526
    20   1 H        0.924     0.030     2.593     2.518
    21   1 H        0.924     0.030     2.593     2.518
    22   1 H        0.924     0.028     2.621     2.532
    23   1 H        0.924     0.028     2.615     2.529
    24   1 H        0.924     0.032     2.565     2.505
    25   1 H        0.924     0.029     2.595     2.519
    26   1 H        0.924     0.028     2.609     2.526
    27   1 H        0.924     0.029     2.595     2.519
    28   1 H        0.924     0.029     2.594     2.519
    29   1 H        0.924     0.028     2.609     2.526
    30   1 H        0.924     0.029     2.595     2.519
    31   1 H        0.924     0.032     2.563     2.504
    32   1 H        0.924     0.029     2.607     2.525
    33   1 H        0.924     0.028     2.615     2.529
    34   1 H        0.924     0.029     2.602     2.523
    35   1 H        0.924     0.029     2.602     2.523
    36   1 H        0.924     0.029     2.608     2.525
    37   1 H        0.924     0.028     2.610     2.526
    38   1 H        0.924     0.030     2.590     2.517
    39   1 H        0.924     0.030     2.592     2.518
    40   1 H        0.924     0.028     2.609     2.526
    41   1 H        0.924     0.028     2.608     2.525
    42   1 H        0.925     0.033     2.542     2.493
    43   1 H        0.925     0.033     2.542     2.493
    44   1 H        0.925     0.033     2.550     2.497

Wiberg/Mayer (AO) data.
largest (>0.10) Wiberg bond orders for each atom

     #   Z sym  total        # sym  WBO       # sym  WBO       # sym  WBO
 ---------------------------------------------------------------------------
     1   6 C    3.997 --     2 C    1.019    17 H    0.988    15 H    0.988
                            16 H    0.988
     2   6 C    3.998 --     1 C    1.019     3 C    1.008    18 H    0.979
                            19 H    0.979
     3   6 C    3.997 --     2 C    1.008     4 C    1.007    20 H    0.978
                            21 H    0.977
     4   6 C    3.997 --     3 C    1.007     5 C    1.007    23 H    0.978
                            22 H    0.978
     5   6 C    3.997 --     6 C    1.008     4 C    1.007    25 H    0.977
                            24 H    0.975
     6   6 C    3.997 --     5 C    1.008     7 C    1.006    27 H    0.977
                            26 H    0.977
     7   6 C    3.997 --     8 C    1.008     6 C    1.006    28 H    0.977
                            29 H    0.977
     8   6 C    3.997 --     7 C    1.008     9 C    1.007    30 H    0.977
                            31 H    0.975
     9   6 C    3.997 --    10 C    1.007     8 C    1.007    33 H    0.978
                            32 H    0.978
    10   6 C    3.997 --    11 C    1.007     9 C    1.007    35 H    0.978
                            34 H    0.977
    11   6 C    3.997 --    12 C    1.007    10 C    1.007    37 H    0.978
                            36 H    0.977
    12   6 C    3.997 --    13 C    1.008    11 C    1.007    39 H    0.978
                            38 H    0.977
    13   6 C    3.998 --    14 C    1.019    12 C    1.008    40 H    0.979
                            41 H    0.979
    14   6 C    3.997 --    13 C    1.019    43 H    0.988    42 H    0.988
                            44 H    0.988
    15   1 H    0.999 --     1 C    0.988
    16   1 H    0.999 --     1 C    0.988
    17   1 H    0.999 --     1 C    0.988
    18   1 H    0.999 --     2 C    0.979
    19   1 H    0.999 --     2 C    0.979
    20   1 H    0.999 --     3 C    0.978
    21   1 H    0.999 --     3 C    0.977
    22   1 H    0.999 --     4 C    0.978
    23   1 H    0.999 --     4 C    0.978
    24   1 H    0.999 --     5 C    0.975
    25   1 H    0.999 --     5 C    0.977
    26   1 H    0.999 --     6 C    0.977
    27   1 H    0.999 --     6 C    0.977
    28   1 H    0.999 --     7 C    0.977
    29   1 H    0.999 --     7 C    0.977
    30   1 H    0.999 --     8 C    0.977
    31   1 H    0.999 --     8 C    0.975
    32   1 H    0.999 --     9 C    0.978
    33   1 H    0.999 --     9 C    0.978
    34   1 H    0.999 --    10 C    0.977
    35   1 H    0.999 --    10 C    0.978
    36   1 H    0.999 --    11 C    0.977
    37   1 H    0.999 --    11 C    0.978
    38   1 H    0.999 --    12 C    0.977
    39   1 H    0.999 --    12 C    0.978
    40   1 H    0.999 --    13 C    0.979
    41   1 H    0.999 --    13 C    0.979
    42   1 H    0.999 --    14 C    0.988
    43   1 H    0.999 --    14 C    0.988
    44   1 H    0.999 --    14 C    0.988
 ---------------------------------------------------------------------------

molecular dipole:
                 x           y           z       tot (Debye)
 q only:       -0.002       0.025       0.001
   full:       -0.002       0.019       0.000       0.049

 projected vibrational frequencies (cm⁻¹)
eigval :       -0.00     0.00     0.00     0.00     0.00     0.00
eigval :       20.25    26.30    32.84    46.13    55.61    76.86
eigval :       85.72    91.75   113.32   121.87   134.62   136.99
eigval :      147.25   174.86   213.38   233.58   233.76   252.40
eigval :      296.57   304.83   394.97   428.76   450.35   477.97
eigval :      536.23   765.70   769.39   772.02   779.36   790.18
eigval :      819.60   834.79   881.55   905.57   936.64   941.05
eigval :      950.24   972.36   993.66  1017.45  1032.11  1052.34
eigval :     1056.29  1065.54  1093.28  1100.94  1102.64  1107.34
eigval :     1108.73  1114.88  1129.32  1130.92  1142.50  1175.54
eigval :     1204.09  1210.38  1229.74  1233.58  1245.92  1253.40
eigval :     1266.70  1270.48  1275.10  1279.29  1284.60  1288.63
eigval :     1293.06  1296.24  1298.53  1306.88  1316.56  1346.27
eigval :     1347.88  1370.81  1375.37  1378.15  1379.45  1380.76
eigval :     1416.19  1416.28  1491.30  1491.36  1495.66  1496.30
eigval :     1496.63  1497.85  1498.45  1500.04  1500.92  1502.23
eigval :     1503.57  1504.82  1504.89  1505.29  1508.00  1508.10
eigval :     2952.66  2953.32  2954.81  2956.08  2956.29  2959.69
eigval :     2960.18  2965.88  2968.24  2970.91  2972.27  2972.91
eigval :     2973.30  2974.13  2975.06  2975.86  2977.86  2978.26
eigval :     2979.74  2983.27  2984.33  2986.83  2990.93  2996.95
eigval :     3029.69  3029.95  3032.32  3032.40  3037.97  3038.04

   temp. (K)  partition function   enthalpy   heat capacity  entropy
                                   cal/mol     cal/K/mol   cal/K/mol   J/K/mol
 298.15  VIB  0.606E+09            10316.509     57.517     67.929
         ROT  0.641E+07              888.752      2.981     34.129
         INT  0.388E+16            11205.262     60.498    102.058
         TR   0.270E+28             1481.254      4.968     41.741
         TOT                       12686.5157    65.4660   143.7987   601.6537

       T/K    H(0)-H(T)+PV         H(T)/Eh          T*S/Eh         G(T)/Eh
   ------------------------------------------------------------------------
    298.15    0.202172E-01    0.432837E+00    0.683234E-01    0.364513E+00
   ------------------------------------------------------------------------

         :::::::::::::::::::::::::::::::::::::::::::::::::::::
         ::                  THERMODYNAMIC                  ::
         :::::::::::::::::::::::::::::::::::::::::::::::::::::
         :: total free energy         -44.943656261324 Eh   ::
         ::.................................................::
         :: total energy              -45.308169510750 Eh   ::
         :: zero point energy           0.412619393734 Eh   ::
         :: G(RRHO) w/o ZPVE           -0.048106144307 Eh   ::
         :: G(RRHO) contrib.            0.364513249427 Eh   ::
         :::::::::::::::::::::::::::::::::::::::::::::::::::::

           -------------------------------------------------
          | TOTAL ENERGY              -45.308169510750 Eh   |
          | TOTAL ENTHALPY            -44.875332867297 Eh   |
          | TOTAL FREE ENERGY         -44.943656261324 Eh   |
          | GRADIENT NORM               0.000226495338 Eh/α |
          | HOMO-LUMO GAP              12.232737866515 eV   |
           -------------------------------------------------

 * finished run on 2024/04/23 at 12:10:41.006
