   * xtb version 6.6.1 (8d0f1dd) compiled by 'stahn@M-Bot' on 2023-08-01
          program call               : xtb folded.xyz --gfn 2 --ohess -P 4

   ID    Z sym.   atoms
    1    6 C      1-16
    2    1 H      17-50

          :  Hamiltonian                  GFN2-xTB          :
 * total energy  :   -51.6291327 Eh     change       -0.3739586E-10 Eh
 * total energy  :   -51.6321838 Eh     change       -0.3051135E-02 Eh
 * total energy  :   -51.6326806 Eh     change       -0.4967785E-03 Eh
 * total energy  :   -51.6327272 Eh     change       -0.4664856E-04 Eh
 * total energy  :   -51.6328216 Eh     change       -0.9431938E-04 Eh
 * total energy  :   -51.6328554 Eh     change       -0.3383512E-04 Eh
 * total energy  :   -51.6329159 Eh     change       -0.6049559E-04 Eh
 * total energy  :   -51.6329458 Eh     change       -0.2989256E-04 Eh
 * total energy  :   -51.6329933 Eh     change       -0.4756982E-04 Eh
 * total energy  :   -51.6330379 Eh     change       -0.4459928E-04 Eh
 * total energy  :   -51.6331044 Eh     change       -0.1326996E-04 Eh
 * total energy  :   -51.6331173 Eh     change       -0.1295488E-04 Eh
 * total energy  :   -51.6331281 Eh     change       -0.1079605E-04 Eh
 * total energy  :   -51.6331390 Eh     change       -0.1084010E-04 Eh
 * total energy  :   -51.6331535 Eh     change       -0.1457998E-04 Eh
 * total energy  :   -51.6331636 Eh     change       -0.1003747E-04 Eh
 * total energy  :   -51.6331709 Eh     change       -0.7335988E-05 Eh
 * total energy  :   -51.6331774 Eh     change       -0.6501242E-05 Eh
 * total energy  :   -51.6331797 Eh     change       -0.2300824E-05 Eh
   *** GEOMETRY OPTIMIZATION CONVERGED AFTER 22 ITERATIONS ***

 final structure:
================
50
 xtb: 6.6.1 (8d0f1dd)
C            0.74379990430160       -1.96499968649343        2.30362767085698
C            1.90542118499440       -2.65953476939466        1.60274220206964
C            1.74064260673519       -2.73678287542186        0.08349215647434
C            1.67924967951083       -1.38346721311513       -0.62764255052735
C            2.94058959475436       -0.54546904364210       -0.43006173828535
C            2.99050527977072        0.69783606652331       -1.32074989072802
C            1.82703913850803        1.67273605620943       -1.12626288788286
C            1.70213705254983        2.18177853588780        0.30812266040828
C            0.69247545359499        3.32115350522273        0.46331280711686
C           -0.72428867884231        2.99608689427440       -0.01546108279706
C           -1.32729322575628        1.75656288496801        0.64123337116692
C           -2.77751638953069        1.54670546174799        0.21186275004192
C           -3.38739415700034        0.24590078409803        0.73821152971337
C           -2.74276958446351       -1.03431469274503        0.20201146987412
C           -2.84228618024747       -1.18504426950318       -1.31431210918156
C           -2.30277184989404       -2.53206142323766       -1.78009223748717
H            0.87225110234346       -2.01246071083276        3.38284568129998
H           -0.19815866792219       -2.44741245963751        2.05026070769401
H            0.68336221243000       -0.91720915749140        2.02062324216224
H            2.83738422768332       -2.14685241149386        1.84623422978262
H            1.98699956366399       -3.67973631602483        1.98645824144078
H            2.57629247124943       -3.31071766145713       -0.32565523567013
H            0.82375579624634       -3.29002015481396       -0.13880312357054
H            0.80832545836184       -0.83115331026351       -0.27514610660673
H            1.53985278108804       -1.56468419254253       -1.69703372921261
H            3.81211220942820       -1.16463621692373       -0.65975479936228
H            3.02295419641000       -0.24036430616302        0.61325049640094
H            3.00503769654533        0.38271351416757       -2.36759667776105
H            3.92862588277798        1.22354853634068       -1.12347951930186
H            1.98210804304994        2.52693329519963       -1.79079231796272
H            0.89960136095750        1.18725554348368       -1.43018512344246
H            1.41806215135599        1.36265201083601        0.96895832972075
H            2.67884097833496        2.54409193644369        0.64018072313458
H            1.05076049267290        4.19079735924200       -0.09379784025369
H            0.65257068850763        3.60188902423624        1.51915040749584
H           -1.36284203256758        3.85735312295434        0.19885731420915
H           -0.72048801703677        2.85950951637789       -1.09880321022944
H           -1.27924221916290        1.85478210147673        1.72851542283797
H           -0.74240702406751        0.88291821910428        0.35735018503564
H           -3.37905228655554        2.38265174097297        0.57850740971114
H           -2.83633844789424        1.56252530865139       -0.87794837683892
H           -4.44940617197438        0.23392020806004        0.47933379245350
H           -3.31480888984740        0.23977097253461        1.82892958499158
H           -3.24264738228185       -1.88635500013884        0.67081821960227
H           -1.69385908524398       -1.07557154912455        0.49865248532366
H           -3.88697236343102       -1.08575916906677       -1.61874346479130
H           -2.27536724826629       -0.39143220946753       -1.80358446398148
H           -2.38381904261969       -2.62480190084694       -2.86086630922909
H           -2.86017041329006       -3.34743862030966       -1.32347783445968
H           -1.25528384993082       -2.63721427886201       -1.50530246145567
           -------------------------------------------------
          |                Final Singlepoint                |
           -------------------------------------------------

          :  Hamiltonian                  GFN2-xTB          :
         :: gradient norm              0.000203173342 Eh/a0 ::
         :: HOMO-LUMO gap             12.833445075906 eV    ::
         :: SCC energy               -52.404878957639 Eh    ::
         :: -> dispersion             -0.040321194821 Eh    ::
         :: repulsion energy           0.770152499160 Eh    ::

    * Orbital Energies and Occupations

         #    Occupation            Energy/Eh            Energy/eV
      -------------------------------------------------------------
         1        2.0000           -0.6240420             -16.9810
       ...           ...                  ...                  ...
        37        2.0000           -0.4388856             -11.9427
        38        2.0000           -0.4357056             -11.8562
        39        2.0000           -0.4304270             -11.7125
        40        2.0000           -0.4272028             -11.6248
        41        2.0000           -0.4253823             -11.5752
        42        2.0000           -0.4218703             -11.4797
        43        2.0000           -0.4187567             -11.3950
        44        2.0000           -0.4161248             -11.3233
        45        2.0000           -0.4151175             -11.2959
        46        2.0000           -0.4129119             -11.2359
        47        2.0000           -0.4096663             -11.1476
        48        2.0000           -0.4089290             -11.1275
        49        2.0000           -0.4079414             -11.1007 (HOMO)
        50                          0.0636790               1.7328 (LUMO)
        51                          0.0733006               1.9946
        52                          0.0762943               2.0761
        53                          0.0791776               2.1545
        54                          0.0818779               2.2280
        55                          0.0937888               2.5521
        56                          0.0973639               2.6494
        57                          0.1060254               2.8851
        58                          0.1086719               2.9571
        59                          0.1179577               3.2098
        60                          0.1208250               3.2878
       ...                                ...                  ...
        98                          0.3422948               9.3143
      -------------------------------------------------------------
                  HL-Gap            0.4716204 Eh           12.8334 eV

     #   Z          covCN         q      C6AA      α(0)
     1   6 C        3.751    -0.098    22.435     6.755
     2   6 C        3.799    -0.052    21.516     6.604
     3   6 C        3.801    -0.056    21.584     6.615
     4   6 C        3.801    -0.054    21.547     6.609
     5   6 C        3.801    -0.058    21.611     6.619
     6   6 C        3.801    -0.057    21.604     6.618
     7   6 C        3.801    -0.057    21.601     6.617
     8   6 C        3.801    -0.056    21.580     6.614
     9   6 C        3.800    -0.057    21.602     6.617
    10   6 C        3.802    -0.057    21.602     6.617
    11   6 C        3.802    -0.057    21.590     6.615
    12   6 C        3.802    -0.058    21.616     6.619
    13   6 C        3.801    -0.058    21.611     6.619
    14   6 C        3.802    -0.058    21.609     6.618
    15   6 C        3.800    -0.052    21.502     6.602
    16   6 C        3.752    -0.101    22.490     6.763
    17   1 H        0.925     0.028     2.608     2.526
    18   1 H        0.925     0.033     2.539     2.492
    19   1 H        0.925     0.034     2.535     2.490
    20   1 H        0.924     0.030     2.582     2.513
    21   1 H        0.924     0.025     2.653     2.547
    22   1 H        0.924     0.025     2.663     2.552
    23   1 H        0.924     0.027     2.635     2.539
    24   1 H        0.925     0.034     2.529     2.487
    25   1 H        0.924     0.026     2.649     2.545
    26   1 H        0.924     0.026     2.650     2.546
    27   1 H        0.925     0.034     2.533     2.489
    28   1 H        0.924     0.026     2.644     2.543
    29   1 H        0.924     0.026     2.651     2.546
    30   1 H        0.924     0.026     2.643     2.542
    31   1 H        0.925     0.035     2.515     2.480
    32   1 H        0.925     0.033     2.547     2.496
    33   1 H        0.924     0.026     2.641     2.541
    34   1 H        0.924     0.026     2.641     2.541
    35   1 H        0.924     0.027     2.635     2.538
    36   1 H        0.924     0.025     2.658     2.550
    37   1 H        0.924     0.029     2.599     2.521
    38   1 H        0.924     0.026     2.640     2.541
    39   1 H        0.925     0.036     2.496     2.471
    40   1 H        0.924     0.025     2.664     2.552
    41   1 H        0.924     0.030     2.580     2.512
    42   1 H        0.924     0.027     2.631     2.537
    43   1 H        0.924     0.028     2.613     2.528
    44   1 H        0.924     0.026     2.643     2.542
    45   1 H        0.924     0.034     2.534     2.489
    46   1 H        0.924     0.027     2.636     2.539
    47   1 H        0.924     0.031     2.570     2.507
    48   1 H        0.925     0.031     2.578     2.511
    49   1 H        0.925     0.030     2.582     2.513
    50   1 H        0.925     0.034     2.532     2.488

Wiberg/Mayer (AO) data.
largest (>0.10) Wiberg bond orders for each atom

     #   Z sym  total        # sym  WBO       # sym  WBO       # sym  WBO
 ---------------------------------------------------------------------------
     1   6 C    3.997 --     2 C    1.020    17 H    0.988    18 H    0.986
                            19 H    0.984
     2   6 C    3.998 --     1 C    1.020     3 C    1.007    21 H    0.979
                            20 H    0.976
     3   6 C    3.998 --     2 C    1.007     4 C    1.007    22 H    0.978
                            23 H    0.976
     4   6 C    3.998 --     5 C    1.009     3 C    1.007    25 H    0.977
                            24 H    0.970
     5   6 C    3.998 --     4 C    1.009     6 C    1.006    26 H    0.977
                            27 H    0.974
     6   6 C    3.998 --     5 C    1.006     7 C    1.006    29 H    0.978
                            28 H    0.978
     7   6 C    3.998 --     8 C    1.009     6 C    1.006    30 H    0.977
                            31 H    0.974
     8   6 C    3.998 --     7 C    1.009     9 C    1.006    33 H    0.977
                            32 H    0.973
     9   6 C    3.997 --     8 C    1.006    10 C    1.006    35 H    0.978
                            34 H    0.978
    10   6 C    3.997 --    11 C    1.008     9 C    1.006    36 H    0.977
                            37 H    0.977
    11   6 C    3.998 --    10 C    1.008    12 C    1.008    38 H    0.978
                            39 H    0.968
    12   6 C    3.997 --    11 C    1.008    13 C    1.007    40 H    0.978
                            41 H    0.974
    13   6 C    3.997 --    14 C    1.007    12 C    1.007    42 H    0.978
                            43 H    0.978
    14   6 C    3.997 --    15 C    1.009    13 C    1.007    44 H    0.977
                            45 H    0.972
    15   6 C    3.998 --    16 C    1.019    14 C    1.009    46 H    0.979
                            47 H    0.976
    16   6 C    3.997 --    15 C    1.019    49 H    0.988    48 H    0.988
                            50 H    0.986
    17   1 H    0.999 --     1 C    0.988
    18   1 H    0.999 --     1 C    0.986
    19   1 H    0.999 --     1 C    0.984
    20   1 H    0.999 --     2 C    0.976
    21   1 H    0.999 --     2 C    0.979
    22   1 H    0.999 --     3 C    0.978
    23   1 H    0.999 --     3 C    0.976
    24   1 H    0.999 --     4 C    0.970
    25   1 H    0.999 --     4 C    0.977
    26   1 H    0.999 --     5 C    0.977
    27   1 H    0.999 --     5 C    0.974
    28   1 H    0.999 --     6 C    0.978
    29   1 H    0.999 --     6 C    0.978
    30   1 H    0.999 --     7 C    0.977
    31   1 H    0.999 --     7 C    0.974
    32   1 H    0.999 --     8 C    0.973
    33   1 H    0.999 --     8 C    0.977
    34   1 H    0.999 --     9 C    0.978
    35   1 H    0.999 --     9 C    0.978
    36   1 H    0.999 --    10 C    0.977
    37   1 H    0.999 --    10 C    0.977
    38   1 H    0.999 --    11 C    0.978
    39   1 H    0.999 --    11 C    0.968
    40   1 H    0.999 --    12 C    0.978
    41   1 H    0.999 --    12 C    0.974
    42   1 H    0.999 --    13 C    0.978
    43   1 H    0.999 --    13 C    0.978
    44   1 H    0.999 --    14 C    0.977
    45   1 H    0.999 --    14 C    0.972
    46   1 H    0.999 --    15 C    0.979
    47   1 H    0.999 --    15 C    0.976
    48   1 H    0.999 --    16 C    0.988
    49   1 H    0.999 --    16 C    0.988
    50   1 H    0.999 --    16 C    0.986
 ---------------------------------------------------------------------------

molecular dipole:
                 x           y           z       tot (Debye)
 q only:        0.011      -0.016       0.007
   full:        0.011      -0.011       0.006       0.043

 projected vibrational frequencies (cm⁻¹)
eigval :       -0.00    -0.00    -0.00     0.00     0.00     0.00
eigval :       16.15    23.74    38.20    40.81    45.22    56.49
eigval :       64.63    77.88   110.81   137.75   157.82   177.47
eigval :      201.28   209.32   220.47   225.91   241.73   256.43
eigval :      265.68   277.75   296.74   310.11   348.18   399.15
eigval :      413.30   458.34   498.37   507.24   531.62   748.45
eigval :      754.99   763.68   783.99   802.17   831.71   839.32
eigval :      858.18   871.70   888.15   897.97   905.66   927.65
eigval :      937.95   954.58   987.01   994.01  1012.97  1027.72
eigval :     1044.26  1048.14  1062.75  1071.11  1085.37  1093.87
eigval :     1104.21  1115.24  1133.47  1146.29  1147.30  1151.90
eigval :     1152.77  1160.51  1164.56  1175.47  1181.97  1224.11
eigval :     1228.78  1245.79  1251.00  1263.32  1274.29  1279.58
eigval :     1282.10  1284.99  1287.12  1289.84  1292.30  1308.14
eigval :     1311.96  1321.84  1353.65  1355.29  1359.10  1361.92
eigval :     1363.14  1364.40  1372.92  1374.69  1376.06  1378.47
eigval :     1414.25  1416.47  1487.33  1487.67  1489.08  1490.76
eigval :     1492.53  1493.11  1495.56  1499.24  1500.93  1502.90
eigval :     1503.49  1505.68  1505.99  1507.48  1509.18  1510.61
eigval :     1512.11  1520.46  2951.85  2952.98  2953.37  2955.64
eigval :     2955.80  2956.49  2956.85  2957.34  2958.11  2959.18
eigval :     2962.62  2964.59  2968.07  2970.24  2972.75  2973.99
eigval :     2974.86  2977.02  2982.55  2987.36  2991.30  2993.97
eigval :     2996.38  2998.20  3000.60  3004.43  3007.31  3014.45
eigval :     3028.35  3028.81  3030.96  3031.96  3036.64  3042.98

   temp. (K)  partition function   enthalpy   heat capacity  entropy
                                   cal/mol     cal/K/mol   cal/K/mol   J/K/mol
 298.15  VIB  0.240E+10            11317.116     65.541     72.755
         ROT  0.451E+07              888.752      2.981     33.430
         INT  0.108E+17            12205.868     68.522    106.185
         TR   0.330E+28             1481.254      4.968     42.135
         TOT                       13687.1220    73.4903   148.3203   620.5721

       T/K    H(0)-H(T)+PV         H(T)/Eh          T*S/Eh         G(T)/Eh
   ------------------------------------------------------------------------
    298.15    0.218118E-01    0.492443E+00    0.704718E-01    0.421971E+00
   ------------------------------------------------------------------------

         :::::::::::::::::::::::::::::::::::::::::::::::::::::
         ::                  THERMODYNAMIC                  ::
         :::::::::::::::::::::::::::::::::::::::::::::::::::::
         :: total free energy         -51.211208362186 Eh   ::
         ::.................................................::
         :: total energy              -51.633179716843 Eh   ::
         :: zero point energy           0.470631289318 Eh   ::
         :: G(RRHO) w/o ZPVE           -0.048659934662 Eh   ::
         :: G(RRHO) contrib.            0.421971354656 Eh   ::
         :::::::::::::::::::::::::::::::::::::::::::::::::::::

           -------------------------------------------------
          | TOTAL ENERGY              -51.633179716843 Eh   |
          | TOTAL ENTHALPY            -51.140736610181 Eh   |
          | TOTAL FREE ENERGY         -51.211208362186 Eh   |
          | GRADIENT NORM               0.000203172029 Eh/α |
          | HOMO-LUMO GAP              12.833445037109 eV   |
           -------------------------------------------------

 * finished run on 2024/04/23 at 12:10:49.684
