   * xtb version 6.6.1 (8d0f1dd) compiled by 'stahn@M-Bot' on 2023-08-01
          program call               : xtb folded.xyz --gfn 2 --ohess -P 4

   ID    Z sym.   atoms
    1    6 C      1-6
    2    1 H      7-20

          :  Hamiltonian                  GFN2-xTB          :
 * total energy  :   -19.9906724 Eh     change       -0.8082424E-11 Eh
 * total energy  :   -19.9918037 Eh     change       -0.1131331E-02 Eh
 * total energy  :   -19.9919568 Eh     change       -0.1530935E-03 Eh
 * total energy  :   -19.9919726 Eh     change       -0.1580324E-04 Eh
 * total energy  :   -19.9919941 Eh     change       -0.2149757E-04 Eh
 * total energy  :   -19.9920023 Eh     change       -0.8174312E-05 Eh
 * total energy  :   -19.9920149 Eh     change       -0.1259456E-04 Eh
 * total energy  :   -19.9920193 Eh     change       -0.4363532E-05 Eh
 * total energy  :   -19.9920273 Eh     change       -0.8081116E-05 Eh
 * total energy  :   -19.9920306 Eh     change       -0.3271959E-05 Eh
   *** GEOMETRY OPTIMIZATION CONVERGED AFTER 10 ITERATIONS ***

 final structure:
================
20
 xtb: 6.6.1 (8d0f1dd)
C            2.73378789177532        0.36803548324106        0.50932120830034
C            1.41588968869233       -0.37514338323554        0.32416842933897
C            0.52907573452568        0.30866933993537       -0.71403875249248
C           -0.75602767276888       -0.46046993064264       -1.02485130163144
C           -1.71659508514124       -0.61849894985528        0.15542902916155
C           -2.23485678096528        0.71094111966593        0.69192609523058
H            3.28616310026487        0.40697974370531       -0.42726505231075
H            3.35357935276765       -0.12802876758817        1.25280718416406
H            2.55203375833750        1.38859576816660        0.84011357998237
H            1.61851465829673       -1.40050893671446        0.00601359864008
H            0.89694726848916       -0.41971201629107        1.28285830651738
H            1.09634188967058        0.41107451230724       -1.64295453051606
H            0.28344032095838        1.31563417418979       -0.37288194357621
H           -0.48906723765979       -1.45560091370424       -1.38987238561008
H           -1.28061037766040        0.05614581639163       -1.83275022081649
H           -2.56641743828348       -1.21904421499435       -0.17850382584609
H           -1.22646415259825       -1.16953699395471        0.95952967395971
H           -2.99125305387345        0.54057656558632        1.45491129729124
H           -1.43220728946962        1.29242864870583        1.13755853321376
H           -2.68152457535782        1.29632893508538       -0.10908992300044
           -------------------------------------------------
          |                Final Singlepoint                |
           -------------------------------------------------

          :  Hamiltonian                  GFN2-xTB          :
         :: gradient norm              0.000521769291 Eh/a0 ::
         :: HOMO-LUMO gap             13.444769202045 eV    ::
         :: SCC energy               -20.296232937801 Eh    ::
         :: -> dispersion             -0.011179480158 Eh    ::
         :: repulsion energy           0.304163320993 Eh    ::

    * Orbital Energies and Occupations

         #    Occupation            Energy/Eh            Energy/eV
      -------------------------------------------------------------
         1        2.0000           -0.6209214             -16.8961
       ...           ...                  ...                  ...
         7        2.0000           -0.5152235             -14.0199
         8        2.0000           -0.5067531             -13.7895
         9        2.0000           -0.4930558             -13.4167
        10        2.0000           -0.4892437             -13.3130
        11        2.0000           -0.4753038             -12.9337
        12        2.0000           -0.4652732             -12.6607
        13        2.0000           -0.4578093             -12.4576
        14        2.0000           -0.4453897             -12.1197
        15        2.0000           -0.4383326             -11.9276
        16        2.0000           -0.4318587             -11.7515
        17        2.0000           -0.4198130             -11.4237
        18        2.0000           -0.4180907             -11.3768
        19        2.0000           -0.4129137             -11.2360 (HOMO)
        20                          0.0811725               2.2088 (LUMO)
        21                          0.0965681               2.6278
        22                          0.1169543               3.1825
        23                          0.1281889               3.4882
        24                          0.1314706               3.5775
        25                          0.1440429               3.9196
        26                          0.1495597               4.0697
        27                          0.1734893               4.7209
        28                          0.1795730               4.8864
        29                          0.1916480               5.2150
        30                          0.1939629               5.2780
       ...                                ...                  ...
        38                          0.3147943               8.5660
      -------------------------------------------------------------
                  HL-Gap            0.4940862 Eh           13.4448 eV

     #   Z          covCN         q      C6AA      α(0)
     1   6 C        3.752    -0.102    22.500     6.764
     2   6 C        3.800    -0.053    21.518     6.605
     3   6 C        3.802    -0.058    21.624     6.621
     4   6 C        3.801    -0.058    21.612     6.619
     5   6 C        3.799    -0.052    21.516     6.604
     6   6 C        3.751    -0.101    22.486     6.762
     7   1 H        0.925     0.032     2.563     2.504
     8   1 H        0.925     0.031     2.567     2.506
     9   1 H        0.925     0.032     2.562     2.503
    10   1 H        0.924     0.027     2.623     2.533
    11   1 H        0.924     0.031     2.569     2.506
    12   1 H        0.924     0.027     2.624     2.533
    13   1 H        0.924     0.033     2.541     2.493
    14   1 H        0.924     0.027     2.637     2.539
    15   1 H        0.924     0.029     2.605     2.524
    16   1 H        0.924     0.026     2.643     2.542
    17   1 H        0.924     0.030     2.581     2.512
    18   1 H        0.925     0.030     2.591     2.517
    19   1 H        0.925     0.035     2.510     2.478
    20   1 H        0.925     0.032     2.552     2.498

Wiberg/Mayer (AO) data.
largest (>0.10) Wiberg bond orders for each atom

     #   Z sym  total        # sym  WBO       # sym  WBO       # sym  WBO
 ---------------------------------------------------------------------------
     1   6 C    3.997 --     2 C    1.019     9 H    0.988     7 H    0.988
                             8 H    0.988
     2   6 C    3.998 --     1 C    1.019     3 C    1.009    10 H    0.979
                            11 H    0.977
     3   6 C    3.997 --     2 C    1.009     4 C    1.007    12 H    0.977
                            13 H    0.975
     4   6 C    3.998 --     5 C    1.008     3 C    1.007    14 H    0.978
                            15 H    0.978
     5   6 C    3.998 --     6 C    1.020     4 C    1.008    16 H    0.979
                            17 H    0.977
     6   6 C    3.997 --     5 C    1.020    20 H    0.988    18 H    0.988
                            19 H    0.986
     7   1 H    0.999 --     1 C    0.988
     8   1 H    0.999 --     1 C    0.988
     9   1 H    0.999 --     1 C    0.988
    10   1 H    0.999 --     2 C    0.979
    11   1 H    0.999 --     2 C    0.977
    12   1 H    0.999 --     3 C    0.977
    13   1 H    0.999 --     3 C    0.975
    14   1 H    0.999 --     4 C    0.978
    15   1 H    0.999 --     4 C    0.978
    16   1 H    0.999 --     5 C    0.979
    17   1 H    0.999 --     5 C    0.977
    18   1 H    0.999 --     6 C    0.988
    19   1 H    0.999 --     6 C    0.986
    20   1 H    0.999 --     6 C    0.988
 ---------------------------------------------------------------------------

molecular dipole:
                 x           y           z       tot (Debye)
 q only:       -0.005       0.014       0.009
   full:       -0.002       0.012       0.005       0.033

 projected vibrational frequencies (cm⁻¹)
eigval :       -0.00    -0.00    -0.00     0.00     0.00     0.00
eigval :       50.66    72.51   151.87   224.01   236.72   268.21
eigval :      304.93   396.81   490.96   759.06   799.90   860.33
eigval :      875.31   930.50   943.10  1028.08  1043.96  1060.78
eigval :     1094.55  1148.62  1156.50  1161.67  1228.95  1247.45
eigval :     1274.35  1288.57  1308.87  1352.05  1363.33  1374.40
eigval :     1415.07  1416.72  1487.93  1494.24  1498.10  1500.84
eigval :     1505.82  1506.83  1508.36  1516.86  2957.74  2958.63
eigval :     2964.37  2970.48  2977.68  2988.67  2992.03  2996.34
eigval :     3028.27  3030.10  3031.49  3033.44  3036.79  3046.29

   temp. (K)  partition function   enthalpy   heat capacity  entropy
                                   cal/mol     cal/K/mol   cal/K/mol   J/K/mol
 298.15  VIB   181.                 3399.397     22.235     20.951
         ROT  0.216E+06              888.752      2.981     27.394
         INT  0.392E+08             4288.149     25.215     48.345
         TR   0.774E+27             1481.254      4.968     39.257
         TOT                        5769.4034    30.1836    87.6021   366.5274

       T/K    H(0)-H(T)+PV         H(T)/Eh          T*S/Eh         G(T)/Eh
   ------------------------------------------------------------------------
    298.15    0.919413E-02    0.196824E+00    0.416226E-01    0.155202E+00
   ------------------------------------------------------------------------

         :::::::::::::::::::::::::::::::::::::::::::::::::::::
         ::                  THERMODYNAMIC                  ::
         :::::::::::::::::::::::::::::::::::::::::::::::::::::
         :: total free energy         -19.836828955822 Eh   ::
         ::.................................................::
         :: total energy              -19.992030611581 Eh   ::
         :: zero point energy           0.187630129441 Eh   ::
         :: G(RRHO) w/o ZPVE           -0.032428473681 Eh   ::
         :: G(RRHO) contrib.            0.155201655759 Eh   ::
         :::::::::::::::::::::::::::::::::::::::::::::::::::::

           -------------------------------------------------
          | TOTAL ENERGY              -19.992030611581 Eh   |
          | TOTAL ENTHALPY            -19.795206352606 Eh   |
          | TOTAL FREE ENERGY         -19.836828955822 Eh   |
          | GRADIENT NORM               0.000521764549 Eh/α |
          | HOMO-LUMO GAP              13.444769569735 eV   |
           -------------------------------------------------

 * finished run on 2024/04/20 at 10:55:59.184
