   * xtb version 6.6.1 (8d0f1dd) compiled by 'stahn@M-Bot' on 2023-08-01
          program call               : xtb folded.xyz --gfn 2 --ohess -P 4

   ID    Z sym.   atoms
    1    6 C      1-11
    2    1 H      12-35

          :  Hamiltonian                  GFN2-xTB          :
 * total energy  :   -35.8100208 Eh     change       -0.3218048E-10 Eh
 * total energy  :   -35.8120854 Eh     change       -0.2064644E-02 Eh
 * total energy  :   -35.8123896 Eh     change       -0.3042222E-03 Eh
 * total energy  :   -35.8124103 Eh     change       -0.2068940E-04 Eh
 * total energy  :   -35.8124349 Eh     change       -0.2454486E-04 Eh
 * total energy  :   -35.8124428 Eh     change       -0.7898073E-05 Eh
 * total energy  :   -35.8124565 Eh     change       -0.1369855E-04 Eh
 * total energy  :   -35.8124623 Eh     change       -0.5870277E-05 Eh
 * total energy  :   -35.8125071 Eh     change       -0.4473662E-04 Eh
 * total energy  :   -35.8125272 Eh     change       -0.2012086E-04 Eh
 * total energy  :   -35.8125764 Eh     change       -0.4922159E-04 Eh
 * total energy  :   -35.8125949 Eh     change       -0.1849924E-04 Eh
 * total energy  :   -35.8126113 Eh     change       -0.1634944E-04 Eh
 * total energy  :   -35.8126289 Eh     change       -0.1765256E-04 Eh
 * total energy  :   -35.8126333 Eh     change       -0.4371410E-05 Eh
   *** GEOMETRY OPTIMIZATION CONVERGED AFTER 15 ITERATIONS ***

 final structure:
================
35
 xtb: 6.6.1 (8d0f1dd)
C           -2.54880778345816        2.58480132096855       -0.21931241694624
C           -2.22945185695237        1.24303809063342        0.42778261817939
C           -2.67966783441151        0.07330702316366       -0.44513983813626
C           -2.51609569167291       -1.29033497598577        0.23011847579449
C           -1.07415722703385       -1.66215647955747        0.58060771525403
C           -0.19430530735829       -1.87602937841648       -0.64852009295483
C            1.25341222368673       -2.22815035974176       -0.30151290546389
C            2.01442711671336       -1.14211564639606        0.46313639398936
C            2.07008366216584        0.19620514296955       -0.27003304904609
C            2.95696452874319        1.20737222810621        0.45193183509757
C            2.94546397607286        2.56340455893772       -0.24359695698411
H           -2.20780352161556        3.40413617292464        0.40982902922873
H           -3.62059825268826        2.69195347939352       -0.37079915893813
H           -2.05835484573743        2.66842049844144       -1.18682155949527
H           -1.15410725197554        1.18385842167861        0.60203764397164
H           -2.72712570846313        1.18003761348062        1.39810002701845
H           -2.12812166518661        0.09137523332510       -1.38677927162636
H           -3.73690039819497        0.20729873309311       -0.68878579323945
H           -2.92895631836888       -2.05803222796046       -0.42941229800760
H           -3.10793146546965       -1.29385779084296        1.14921859138466
H           -1.08662146643621       -2.58483453880743        1.16665338632633
H           -0.64888415277421       -0.88254763076147        1.21125352357732
H           -0.20331447468108       -0.98309921923257       -1.27272464670681
H           -0.61430289899228       -2.69209176854709       -1.24250498537521
H            1.78786618798298       -2.43821375825495       -1.23160864163669
H            1.26254335504604       -3.14295999144864        0.29658444790690
H            1.56390848503121       -0.99635602516456        1.44674897864044
H            3.03585696667538       -1.49564118144318        0.62736726028973
H            2.45101029384741        0.03968058779113       -1.28192782301454
H            1.06577705387656        0.61376037764511       -0.35395613646743
H            2.60617831821480        1.32483392444781        1.47985016727482
H            3.98016382953613        0.82814031896840        0.49460409015603
H            1.93634156629258        2.96862408891386       -0.27102740848855
H            3.30320190775652        2.46999593714440       -1.26641458210449
H            3.58422664982911        3.27053322053360        0.27990638054204
           -------------------------------------------------
          |                Final Singlepoint                |
           -------------------------------------------------

          :  Hamiltonian                  GFN2-xTB          :
         :: gradient norm              0.000952197769 Eh/a0 ::
         :: HOMO-LUMO gap             12.922311291103 eV    ::
         :: SCC energy               -36.351031454028 Eh    ::
         :: -> dispersion             -0.024202729502 Eh    ::
         :: repulsion energy           0.537979778545 Eh    ::

    * Orbital Energies and Occupations

         #    Occupation            Energy/Eh            Energy/eV
      -------------------------------------------------------------
         1        2.0000           -0.6232212             -16.9587
       ...           ...                  ...                  ...
        22        2.0000           -0.4601114             -12.5203
        23        2.0000           -0.4533471             -12.3362
        24        2.0000           -0.4497190             -12.2375
        25        2.0000           -0.4450317             -12.1099
        26        2.0000           -0.4372553             -11.8983
        27        2.0000           -0.4346749             -11.8281
        28        2.0000           -0.4259395             -11.5904
        29        2.0000           -0.4257250             -11.5846
        30        2.0000           -0.4211465             -11.4600
        31        2.0000           -0.4190373             -11.4026
        32        2.0000           -0.4143530             -11.2751
        33        2.0000           -0.4101321             -11.1603
        34        2.0000           -0.4077077             -11.0943 (HOMO)
        35                          0.0671785               1.8280 (LUMO)
        36                          0.0773562               2.1050
        37                          0.0802345               2.1833
        38                          0.0955131               2.5990
        39                          0.1069646               2.9107
        40                          0.1133033               3.0831
        41                          0.1195856               3.2541
        42                          0.1276598               3.4738
        43                          0.1353201               3.6822
        44                          0.1480156               4.0277
        45                          0.1513609               4.1187
       ...                                ...                  ...
        68                          0.3399506               9.2505
      -------------------------------------------------------------
                  HL-Gap            0.4748862 Eh           12.9223 eV

     #   Z          covCN         q      C6AA      α(0)
     1   6 C        3.752    -0.101    22.491     6.763
     2   6 C        3.800    -0.052    21.500     6.602
     3   6 C        3.802    -0.058    21.613     6.619
     4   6 C        3.801    -0.058    21.615     6.619
     5   6 C        3.801    -0.059    21.628     6.621
     6   6 C        3.801    -0.058    21.620     6.620
     7   6 C        3.801    -0.057    21.605     6.618
     8   6 C        3.801    -0.057    21.600     6.617
     9   6 C        3.803    -0.058    21.619     6.620
    10   6 C        3.801    -0.052    21.516     6.604
    11   6 C        3.752    -0.102    22.499     6.764
    12   1 H        0.925     0.031     2.569     2.507
    13   1 H        0.925     0.031     2.569     2.506
    14   1 H        0.925     0.032     2.564     2.504
    15   1 H        0.924     0.032     2.565     2.505
    16   1 H        0.924     0.027     2.623     2.533
    17   1 H        0.924     0.030     2.582     2.513
    18   1 H        0.924     0.027     2.624     2.533
    19   1 H        0.924     0.027     2.627     2.535
    20   1 H        0.924     0.027     2.628     2.535
    21   1 H        0.924     0.025     2.652     2.546
    22   1 H        0.925     0.037     2.493     2.469
    23   1 H        0.925     0.036     2.504     2.475
    24   1 H        0.924     0.025     2.652     2.547
    25   1 H        0.924     0.027     2.625     2.534
    26   1 H        0.924     0.027     2.630     2.536
    27   1 H        0.924     0.029     2.603     2.523
    28   1 H        0.924     0.026     2.645     2.543
    29   1 H        0.924     0.029     2.608     2.525
    30   1 H        0.924     0.034     2.524     2.484
    31   1 H        0.924     0.027     2.632     2.537
    32   1 H        0.924     0.027     2.636     2.539
    33   1 H        0.925     0.033     2.540     2.492
    34   1 H        0.925     0.033     2.549     2.497
    35   1 H        0.925     0.032     2.565     2.504

Wiberg/Mayer (AO) data.
largest (>0.10) Wiberg bond orders for each atom

     #   Z sym  total        # sym  WBO       # sym  WBO       # sym  WBO
 ---------------------------------------------------------------------------
     1   6 C    3.997 --     2 C    1.019    14 H    0.988    13 H    0.988
                            12 H    0.988
     2   6 C    3.998 --     1 C    1.019     3 C    1.009    16 H    0.978
                            15 H    0.974
     3   6 C    3.997 --     2 C    1.009     4 C    1.007    18 H    0.977
                            17 H    0.975
     4   6 C    3.998 --     3 C    1.007     5 C    1.007    20 H    0.978
                            19 H    0.977
     5   6 C    3.998 --     6 C    1.010     4 C    1.007    21 H    0.977
                            22 H    0.971
     6   6 C    3.998 --     5 C    1.010     7 C    1.007    24 H    0.977
                            23 H    0.972
     7   6 C    3.997 --     6 C    1.007     8 C    1.006    25 H    0.978
                            26 H    0.978
     8   6 C    3.998 --     9 C    1.008     7 C    1.006    28 H    0.977
                            27 H    0.975
     9   6 C    3.997 --     8 C    1.008    10 C    1.008    29 H    0.978
                            30 H    0.973
    10   6 C    3.998 --    11 C    1.019     9 C    1.008    32 H    0.979
                            31 H    0.979
    11   6 C    3.997 --    10 C    1.019    34 H    0.988    33 H    0.988
                            35 H    0.988
    12   1 H    0.999 --     1 C    0.988
    13   1 H    0.999 --     1 C    0.988
    14   1 H    0.999 --     1 C    0.988
    15   1 H    0.999 --     2 C    0.974
    16   1 H    0.999 --     2 C    0.978
    17   1 H    0.999 --     3 C    0.975
    18   1 H    0.999 --     3 C    0.977
    19   1 H    0.999 --     4 C    0.977
    20   1 H    0.999 --     4 C    0.978
    21   1 H    0.999 --     5 C    0.977
    22   1 H    0.999 --     5 C    0.971
    23   1 H    0.999 --     6 C    0.972
    24   1 H    0.999 --     6 C    0.977
    25   1 H    0.999 --     7 C    0.978
    26   1 H    0.999 --     7 C    0.978
    27   1 H    0.999 --     8 C    0.975
    28   1 H    0.999 --     8 C    0.977
    29   1 H    0.999 --     9 C    0.978
    30   1 H    0.999 --     9 C    0.973
    31   1 H    0.999 --    10 C    0.979
    32   1 H    0.999 --    10 C    0.979
    33   1 H    0.999 --    11 C    0.988
    34   1 H    0.999 --    11 C    0.988
    35   1 H    0.999 --    11 C    0.988
 ---------------------------------------------------------------------------

molecular dipole:
                 x           y           z       tot (Debye)
 q only:       -0.006       0.024      -0.009
   full:       -0.004       0.019      -0.008       0.054

 projected vibrational frequencies (cm⁻¹)
eigval :       -0.00    -0.00    -0.00     0.00     0.00     0.00
eigval :        5.23    25.98    37.50    54.38    67.92   108.08
eigval :      148.55   192.51   200.08   221.44   231.52   246.98
eigval :      260.33   293.37   328.36   400.66   419.46   478.49
eigval :      519.55   746.07   768.73   783.99   812.32   842.69
eigval :      861.09   895.03   914.26   940.56   941.56   969.17
eigval :      982.92  1031.59  1039.06  1068.51  1089.52  1091.87
eigval :     1095.94  1114.01  1137.17  1150.47  1153.27  1158.71
eigval :     1175.66  1213.83  1226.89  1244.76  1269.34  1274.44
eigval :     1278.58  1286.44  1289.30  1292.45  1304.46  1320.56
eigval :     1348.56  1358.80  1364.15  1373.04  1375.69  1377.44
eigval :     1416.13  1417.06  1488.01  1489.84  1492.14  1498.49
eigval :     1499.10  1499.41  1503.19  1505.04  1505.50  1506.06
eigval :     1506.49  1507.90  1509.39  2954.79  2955.56  2958.22
eigval :     2958.73  2959.30  2962.45  2965.00  2971.36  2973.58
eigval :     2976.25  2977.75  2981.13  2987.15  2988.74  2991.39
eigval :     2993.82  3010.47  3014.98  3029.90  3031.18  3031.97
eigval :     3035.14  3037.65  3040.87

   temp. (K)  partition function   enthalpy   heat capacity  entropy
                                   cal/mol     cal/K/mol   cal/K/mol   J/K/mol
 298.15  VIB  0.677E+07             7518.677     43.449     49.242
         ROT  0.176E+07              888.752      2.981     31.564
         INT  0.119E+14             8407.429     46.430     80.806
         TR   0.189E+28             1481.254      4.968     41.031
         TOT                        9888.6830    51.3983   121.8365   509.7639

       T/K    H(0)-H(T)+PV         H(T)/Eh          T*S/Eh         G(T)/Eh
   ------------------------------------------------------------------------
    298.15    0.157586E-01    0.344577E+00    0.578885E-01    0.286688E+00
   ------------------------------------------------------------------------

         :::::::::::::::::::::::::::::::::::::::::::::::::::::
         ::                  THERMODYNAMIC                  ::
         :::::::::::::::::::::::::::::::::::::::::::::::::::::
         :: total free energy         -35.525945145868 Eh   ::
         ::.................................................::
         :: total energy              -35.812633286699 Eh   ::
         :: zero point energy           0.328817977190 Eh   ::
         :: G(RRHO) w/o ZPVE           -0.042129836359 Eh   ::
         :: G(RRHO) contrib.            0.286688140830 Eh   ::
         :::::::::::::::::::::::::::::::::::::::::::::::::::::

           -------------------------------------------------
          | TOTAL ENERGY              -35.812633286699 Eh   |
          | TOTAL ENTHALPY            -35.468056690054 Eh   |
          | TOTAL FREE ENERGY         -35.525945145868 Eh   |
          | GRADIENT NORM               0.000952156745 Eh/α |
          | HOMO-LUMO GAP              12.922311390704 eV   |
           -------------------------------------------------

 * finished run on 2024/04/23 at 12:10:27.213
