   * xtb version 6.6.1 (8d0f1dd) compiled by 'stahn@M-Bot' on 2023-08-01
          program call               : xtb unfolded.xyz --gfn 2 --ohess -P 4

   ID    Z sym.   atoms
    1    6 C      1-13
    2    1 H      14-41

          :  Hamiltonian                  GFN2-xTB          :
 * total energy  :   -42.1401076 Eh     change       -0.1460165E-10 Eh
 * total energy  :   -42.1424696 Eh     change       -0.2362007E-02 Eh
 * total energy  :   -42.1428556 Eh     change       -0.3860449E-03 Eh
 * total energy  :   -42.1428806 Eh     change       -0.2497785E-04 Eh
 * total energy  :   -42.1429002 Eh     change       -0.1956710E-04 Eh
 * total energy  :   -42.1429063 Eh     change       -0.6143143E-05 Eh
 * total energy  :   -42.1429177 Eh     change       -0.1134137E-04 Eh
 * total energy  :   -42.1429215 Eh     change       -0.3866446E-05 Eh
 * total energy  :   -42.1429296 Eh     change       -0.8086702E-05 Eh
 * total energy  :   -42.1429334 Eh     change       -0.3803981E-05 Eh
 * total energy  :   -42.1429387 Eh     change       -0.5222810E-05 Eh
 * total energy  :   -42.1429407 Eh     change       -0.2071115E-05 Eh
   *** GEOMETRY OPTIMIZATION CONVERGED AFTER 12 ITERATIONS ***

 final structure:
================
41
 xtb: 6.6.1 (8d0f1dd)
C            7.03810321054846       -0.60563234515973        0.12817191984753
C            5.59299581023725       -0.78174132593770       -0.32116981255232
C            4.70076609872345        0.35539157409216        0.17066918998179
C            3.24994522045330        0.18037216792328       -0.27155747007149
C            2.36135616186790        1.31773478335852        0.22751049928652
C            0.92294036512018        1.23327201687503       -0.28412953871774
C            0.13419081165951        0.06734374613783        0.30804417768952
C           -1.31272797457958        0.05650558750423       -0.18014832053349
C           -2.10822977576019       -1.10000966365858        0.42180764139441
C           -3.51584715661437       -1.23596198088623       -0.15945689557662
C           -4.44045208826652       -0.07818491113465        0.20955857752101
C           -5.85918107405215       -0.29369277501965       -0.31227321612364
C           -6.77719554201804        0.86887207160619        0.04448410479931
H            7.65521397580341       -1.42538751030613       -0.23263761178556
H            7.09943973889732       -0.58216442377054        1.21417012790969
H            7.44638931364850        0.32646942783309       -0.25678840715604
H            5.55479077425373       -0.82319763935502       -1.41236221178306
H            5.20846214750606       -1.73138244193189        0.05860024932847
H            5.08414500912337        1.30468753216116       -0.21187567218448
H            4.74222769785418        0.39944240549410        1.26185210108363
H            2.87768020764774       -0.77319354869756        0.10704508698275
H            3.20806995696655        0.14397344333676       -1.36306850224698
H            2.79351535592695        2.26672753363941       -0.10082640239961
H            2.35590581739379        1.32007777378473        1.32018845515201
H            0.93340734153487        1.14570415071660       -1.37334625424488
H            0.40781365333280        2.16469837607201       -0.03466624952682
H            0.14681723733065        0.14089488466610        1.39834784991482
H            0.60801418976369       -0.87663082849482        0.03311947874274
H           -1.78339251241666        1.00533312919939        0.08344824116770
H           -1.32298446610187       -0.02887164412579       -1.26964930767691
H           -2.17552509875336       -0.96801225521113        1.50441484352048
H           -1.56469511679209       -2.03053842006454        0.23760843516746
H           -3.44933477708829       -1.31174770316496       -1.24762337719106
H           -3.95740135918222       -2.16627737245377        0.20777180243366
H           -4.04991086321158        0.85255386569004       -0.20556480800460
H           -4.46897150801874        0.02761744563823        1.29690645363751
H           -6.26332468792566       -1.21759247818860        0.10855037741380
H           -5.82874121034062       -0.41177249546809       -1.39812116794100
H           -6.83673325261744        0.99033236786939        1.12405001336215
H           -6.40162895883361        1.79626470253574       -0.38302573421593
H           -7.78109067302064        0.69726177689540       -0.33726366640483
           -------------------------------------------------
          |                Final Singlepoint                |
           -------------------------------------------------

          :  Hamiltonian                  GFN2-xTB          :
         :: gradient norm              0.000474436448 Eh/a0 ::
         :: HOMO-LUMO gap             12.453221662255 eV    ::
         :: SCC energy               -42.773478047339 Eh    ::
         :: -> dispersion             -0.026682956853 Eh    ::
         :: repulsion energy           0.630713940736 Eh    ::

    * Orbital Energies and Occupations

         #    Occupation            Energy/Eh            Energy/eV
      -------------------------------------------------------------
         1        2.0000           -0.6230892             -16.9551
       ...           ...                  ...                  ...
        28        2.0000           -0.4506633             -12.2632
        29        2.0000           -0.4402672             -11.9803
        30        2.0000           -0.4372517             -11.8982
        31        2.0000           -0.4367495             -11.8846
        32        2.0000           -0.4307130             -11.7203
        33        2.0000           -0.4275278             -11.6336
        34        2.0000           -0.4258232             -11.5872
        35        2.0000           -0.4216614             -11.4740
        36        2.0000           -0.4187797             -11.3956
        37        2.0000           -0.4181110             -11.3774
        38        2.0000           -0.4155191             -11.3068
        39        2.0000           -0.4124374             -11.2230
        40        2.0000           -0.4091549             -11.1337 (HOMO)
        41                          0.0484925               1.3195 (LUMO)
        42                          0.0634875               1.7276
        43                          0.0755858               2.0568
        44                          0.1085869               2.9548
        45                          0.1139004               3.0994
        46                          0.1151589               3.1336
        47                          0.1205366               3.2800
        48                          0.1224284               3.3314
        49                          0.1275689               3.4713
        50                          0.1371662               3.7325
        51                          0.1456040               3.9621
       ...                                ...                  ...
        80                          0.3264275               8.8825
      -------------------------------------------------------------
                  HL-Gap            0.4576475 Eh           12.4532 eV

     #   Z          covCN         q      C6AA      α(0)
     1   6 C        3.752    -0.102    22.508     6.766
     2   6 C        3.801    -0.053    21.520     6.605
     3   6 C        3.803    -0.059    21.635     6.622
     4   6 C        3.802    -0.059    21.628     6.621
     5   6 C        3.802    -0.058    21.616     6.619
     6   6 C        3.802    -0.058    21.615     6.619
     7   6 C        3.802    -0.059    21.630     6.621
     8   6 C        3.802    -0.059    21.629     6.621
     9   6 C        3.802    -0.058    21.612     6.619
    10   6 C        3.802    -0.058    21.619     6.620
    11   6 C        3.803    -0.059    21.642     6.623
    12   6 C        3.801    -0.053    21.524     6.605
    13   6 C        3.752    -0.102    22.505     6.765
    14   1 H        0.925     0.032     2.553     2.498
    15   1 H        0.925     0.033     2.543     2.494
    16   1 H        0.925     0.033     2.544     2.494
    17   1 H        0.924     0.028     2.610     2.527
    18   1 H        0.924     0.028     2.612     2.527
    19   1 H        0.924     0.029     2.604     2.524
    20   1 H        0.924     0.029     2.598     2.521
    21   1 H        0.924     0.030     2.580     2.512
    22   1 H        0.924     0.029     2.602     2.523
    23   1 H        0.924     0.028     2.610     2.526
    24   1 H        0.924     0.029     2.594     2.519
    25   1 H        0.924     0.030     2.593     2.518
    26   1 H        0.924     0.028     2.613     2.528
    27   1 H        0.924     0.029     2.604     2.524
    28   1 H        0.924     0.030     2.581     2.512
    29   1 H        0.924     0.030     2.583     2.513
    30   1 H        0.924     0.029     2.600     2.522
    31   1 H        0.924     0.029     2.597     2.520
    32   1 H        0.924     0.028     2.612     2.528
    33   1 H        0.924     0.029     2.602     2.523
    34   1 H        0.924     0.028     2.619     2.531
    35   1 H        0.924     0.032     2.558     2.501
    36   1 H        0.924     0.030     2.587     2.515
    37   1 H        0.924     0.028     2.622     2.532
    38   1 H        0.924     0.028     2.617     2.530
    39   1 H        0.925     0.033     2.544     2.494
    40   1 H        0.925     0.033     2.545     2.495
    41   1 H        0.925     0.032     2.556     2.500

Wiberg/Mayer (AO) data.
largest (>0.10) Wiberg bond orders for each atom

     #   Z sym  total        # sym  WBO       # sym  WBO       # sym  WBO
 ---------------------------------------------------------------------------
     1   6 C    3.997 --     2 C    1.019    16 H    0.988    15 H    0.988
                            14 H    0.988
     2   6 C    3.998 --     1 C    1.019     3 C    1.008    17 H    0.979
                            18 H    0.979
     3   6 C    3.997 --     2 C    1.008     4 C    1.007    20 H    0.978
                            19 H    0.977
     4   6 C    3.998 --     5 C    1.008     3 C    1.007    22 H    0.977
                            21 H    0.976
     5   6 C    3.997 --     4 C    1.008     6 C    1.006    24 H    0.977
                            23 H    0.977
     6   6 C    3.997 --     7 C    1.008     5 C    1.006    26 H    0.977
                            25 H    0.977
     7   6 C    3.997 --     6 C    1.008     8 C    1.007    27 H    0.977
                            28 H    0.975
     8   6 C    3.997 --     9 C    1.008     7 C    1.007    30 H    0.977
                            29 H    0.976
     9   6 C    3.997 --     8 C    1.008    10 C    1.006    31 H    0.978
                            32 H    0.977
    10   6 C    3.997 --    11 C    1.008     9 C    1.006    33 H    0.977
                            34 H    0.977
    11   6 C    3.997 --    10 C    1.008    12 C    1.008    36 H    0.977
                            35 H    0.976
    12   6 C    3.998 --    13 C    1.019    11 C    1.008    38 H    0.979
                            37 H    0.979
    13   6 C    3.997 --    12 C    1.019    39 H    0.988    40 H    0.988
                            41 H    0.988
    14   1 H    0.999 --     1 C    0.988
    15   1 H    0.999 --     1 C    0.988
    16   1 H    0.999 --     1 C    0.988
    17   1 H    0.999 --     2 C    0.979
    18   1 H    0.999 --     2 C    0.979
    19   1 H    0.999 --     3 C    0.977
    20   1 H    0.999 --     3 C    0.978
    21   1 H    0.999 --     4 C    0.976
    22   1 H    0.999 --     4 C    0.977
    23   1 H    0.999 --     5 C    0.977
    24   1 H    0.999 --     5 C    0.977
    25   1 H    0.999 --     6 C    0.977
    26   1 H    0.999 --     6 C    0.977
    27   1 H    0.999 --     7 C    0.977
    28   1 H    0.999 --     7 C    0.975
    29   1 H    0.999 --     8 C    0.976
    30   1 H    0.999 --     8 C    0.977
    31   1 H    0.999 --     9 C    0.978
    32   1 H    0.999 --     9 C    0.977
    33   1 H    0.999 --    10 C    0.977
    34   1 H    0.999 --    10 C    0.977
    35   1 H    0.999 --    11 C    0.976
    36   1 H    0.999 --    11 C    0.977
    37   1 H    0.999 --    12 C    0.979
    38   1 H    0.999 --    12 C    0.979
    39   1 H    0.999 --    13 C    0.988
    40   1 H    0.999 --    13 C    0.988
    41   1 H    0.999 --    13 C    0.988
 ---------------------------------------------------------------------------

molecular dipole:
                 x           y           z       tot (Debye)
 q only:        0.004       0.010       0.004
   full:        0.004       0.008       0.004       0.026

 projected vibrational frequencies (cm⁻¹)
eigval :       -0.00    -0.00     0.00     0.00     0.00     0.00
eigval :       13.52    28.86    39.01    55.83    60.64    85.71
eigval :       97.06   104.27   112.13   120.58   144.95   176.26
eigval :      205.08   225.37   234.32   237.43   300.79   335.13
eigval :      356.65   403.92   422.70   492.31   531.86   766.01
eigval :      768.71   775.49   788.93   804.27   827.06   865.30
eigval :      894.82   931.28   940.35   942.48   958.17   990.44
eigval :      995.01  1018.88  1035.78  1076.26  1080.74  1089.87
eigval :     1097.06  1108.78  1112.79  1122.75  1127.09  1135.40
eigval :     1143.43  1176.43  1182.19  1215.93  1224.10  1248.72
eigval :     1253.94  1262.72  1270.14  1277.47  1283.35  1284.88
eigval :     1287.32  1291.15  1294.38  1301.22  1324.09  1329.55
eigval :     1350.22  1367.61  1370.76  1377.96  1379.12  1381.14
eigval :     1416.51  1416.55  1490.51  1490.86  1493.06  1493.48
eigval :     1496.66  1496.72  1498.73  1500.35  1500.82  1502.38
eigval :     1504.20  1505.04  1505.32  1508.09  1508.15  2953.23
eigval :     2953.81  2954.62  2954.88  2955.57  2959.25  2961.99
eigval :     2963.92  2968.93  2970.63  2972.05  2972.46  2973.66
eigval :     2976.32  2977.68  2979.32  2979.80  2983.11  2983.37
eigval :     2988.58  2991.54  2996.37  3029.06  3029.69  3031.45
eigval :     3031.65  3037.23  3037.40

   temp. (K)  partition function   enthalpy   heat capacity  entropy
                                   cal/mol     cal/K/mol   cal/K/mol   J/K/mol
 298.15  VIB  0.104E+09             9397.494     53.117     61.922
         ROT  0.356E+07              888.752      2.981     32.959
         INT  0.369E+15            10286.246     56.098     94.881
         TR   0.242E+28             1481.254      4.968     41.523
         TOT                       11767.5001    61.0662   136.4039   570.7137

       T/K    H(0)-H(T)+PV         H(T)/Eh          T*S/Eh         G(T)/Eh
   ------------------------------------------------------------------------
    298.15    0.187527E-01    0.403332E+00    0.648099E-01    0.338522E+00
   ------------------------------------------------------------------------

         :::::::::::::::::::::::::::::::::::::::::::::::::::::
         ::                  THERMODYNAMIC                  ::
         :::::::::::::::::::::::::::::::::::::::::::::::::::::
         :: total free energy         -41.804418324252 Eh   ::
         ::.................................................::
         :: total energy              -42.142940721355 Eh   ::
         :: zero point energy           0.384579564901 Eh   ::
         :: G(RRHO) w/o ZPVE           -0.046057167798 Eh   ::
         :: G(RRHO) contrib.            0.338522397103 Eh   ::
         :::::::::::::::::::::::::::::::::::::::::::::::::::::

           -------------------------------------------------
          | TOTAL ENERGY              -42.142940721355 Eh   |
          | TOTAL ENTHALPY            -41.739608451417 Eh   |
          | TOTAL FREE ENERGY         -41.804418324252 Eh   |
          | GRADIENT NORM               0.000474438272 Eh/α |
          | HOMO-LUMO GAP              12.453221770354 eV   |
           -------------------------------------------------

 * finished run on 2024/04/20 at 10:57:07.325
