   * xtb version 6.6.1 (8d0f1dd) compiled by 'stahn@M-Bot' on 2023-08-01
          program call               : xtb 2.xyz --gfn 2 --ohess -P 4

   ID    Z sym.   atoms
    1    6 C      1-4
    2    1 H      5-14

          :  Hamiltonian                  GFN2-xTB          :
 * total energy  :   -13.6633484 Eh     change       -0.5748291E-11 Eh
 * total energy  :   -13.6640735 Eh     change       -0.7250873E-03 Eh
 * total energy  :   -13.6641571 Eh     change       -0.8366323E-04 Eh
 * total energy  :   -13.6641654 Eh     change       -0.8307346E-05 Eh
 * total energy  :   -13.6641720 Eh     change       -0.6585437E-05 Eh
 * total energy  :   -13.6641757 Eh     change       -0.3661276E-05 Eh
   *** GEOMETRY OPTIMIZATION CONVERGED AFTER 6 ITERATIONS ***

 final structure:
================
14
 xtb: 6.6.1 (8d0f1dd)
C           -1.56969309988335       -0.03366224351850       -0.56813795138023
C           -0.67297548094779        0.36287991385685        0.59979956264366
C            0.67297321942673       -0.36316318950769        0.59959408338115
C            1.56963119485269        0.03386203958924       -0.56821727403398
H           -1.12689490619333        0.25716500229467       -1.51695551204445
H           -1.72894629646776       -1.10991788292425       -0.57677813470850
H           -2.53761412995168        0.45531494124671       -0.48301641467249
H           -0.49961931279229        1.44113964877284        0.57373092462515
H           -1.19149389120916        0.13457367522032        1.53419557655818
H            0.49956882511659       -1.44140619339745        0.57303962759640
H            1.19156612017946       -0.13531440821950        1.53406117968196
H            2.53715673037789       -0.45604982550054       -0.48394272148282
H            1.12625093257584       -0.25557760318941       -1.51718568105324
H            1.72981209491616        1.10998712527671       -0.57577426511080
           -------------------------------------------------
          |                Final Singlepoint                |
           -------------------------------------------------

          :  Hamiltonian                  GFN2-xTB          :
         :: gradient norm              0.000793388670 Eh/a0 ::
         :: HOMO-LUMO gap             14.249389899660 eV    ::
         :: SCC energy               -13.874983019579 Eh    ::
         :: -> dispersion             -0.006301821434 Eh    ::
         :: repulsion energy           0.210800240467 Eh    ::

    * Orbital Energies and Occupations

         #    Occupation            Energy/Eh            Energy/eV
      -------------------------------------------------------------
         1        2.0000           -0.6177338             -16.8094
         2        2.0000           -0.5960097             -16.2182
         3        2.0000           -0.5731545             -15.5963
         4        2.0000           -0.5474433             -14.8967
         5        2.0000           -0.5064099             -13.7801
         6        2.0000           -0.5059109             -13.7665
         7        2.0000           -0.4849527             -13.1962
         8        2.0000           -0.4663624             -12.6904
         9        2.0000           -0.4618399             -12.5673
        10        2.0000           -0.4481309             -12.1943
        11        2.0000           -0.4258809             -11.5888
        12        2.0000           -0.4234445             -11.5225
        13        2.0000           -0.4221986             -11.4886 (HOMO)
        14                          0.1014568               2.7608 (LUMO)
        15                          0.1108261               3.0157
        16                          0.1371888               3.7331
        17                          0.1488809               4.0513
        18                          0.1499140               4.0794
        19                          0.1576092               4.2888
        20                          0.2027354               5.5167
        21                          0.2065331               5.6201
        22                          0.2348376               6.3903
        23                          0.2486725               6.7667
        24                          0.2784811               7.5779
       ...                                ...                  ...
        26                          0.2999023               8.1608
      -------------------------------------------------------------
                  HL-Gap            0.5236554 Eh           14.2494 eV

     #   Z          covCN         q      C6AA      α(0)
     1   6 C        3.751    -0.101    22.494     6.764
     2   6 C        3.800    -0.053    21.519     6.605
     3   6 C        3.800    -0.053    21.519     6.605
     4   6 C        3.751    -0.101    22.494     6.764
     5   1 H        0.925     0.035     2.511     2.478
     6   1 H        0.925     0.033     2.550     2.497
     7   1 H        0.925     0.030     2.585     2.514
     8   1 H        0.924     0.030     2.592     2.518
     9   1 H        0.924     0.026     2.643     2.542
    10   1 H        0.924     0.030     2.592     2.518
    11   1 H        0.924     0.026     2.643     2.542
    12   1 H        0.925     0.030     2.585     2.514
    13   1 H        0.925     0.035     2.511     2.478
    14   1 H        0.925     0.033     2.550     2.497

Wiberg/Mayer (AO) data.
largest (>0.10) Wiberg bond orders for each atom

     #   Z sym  total        # sym  WBO       # sym  WBO       # sym  WBO
 ---------------------------------------------------------------------------
     1   6 C    3.997 --     2 C    1.020     6 H    0.988     7 H    0.988
                             5 H    0.986
     2   6 C    3.998 --     1 C    1.020     3 C    1.008     9 H    0.979
                             8 H    0.978
     3   6 C    3.998 --     4 C    1.020     2 C    1.008    11 H    0.979
                            10 H    0.978
     4   6 C    3.997 --     3 C    1.020    14 H    0.988    12 H    0.988
                            13 H    0.986
     5   1 H    0.999 --     1 C    0.986
     6   1 H    0.999 --     1 C    0.988
     7   1 H    0.999 --     1 C    0.988
     8   1 H    0.999 --     2 C    0.978
     9   1 H    0.999 --     2 C    0.979
    10   1 H    0.999 --     3 C    0.978
    11   1 H    0.999 --     3 C    0.979
    12   1 H    0.999 --     4 C    0.988
    13   1 H    0.999 --     4 C    0.986
    14   1 H    0.999 --     4 C    0.988
 ---------------------------------------------------------------------------

molecular dipole:
                 x           y           z       tot (Debye)
 q only:       -0.000      -0.000      -0.015
   full:       -0.000      -0.000      -0.012       0.030

 projected vibrational frequencies (cm⁻¹)
eigval :       -0.00    -0.00    -0.00    -0.00     0.00     0.00
eigval :       96.45   200.49   258.49   322.16   432.26   787.78
eigval :      831.54   884.63   981.42  1017.39  1020.69  1138.44
eigval :     1145.35  1188.30  1256.30  1276.86  1350.29  1356.60
eigval :     1414.67  1415.04  1490.94  1493.84  1503.45  1504.90
eigval :     1508.21  1517.10  2962.75  2965.10  2981.07  2981.22
eigval :     3029.37  3031.83  3034.07  3034.21  3044.16  3050.30

   temp. (K)  partition function   enthalpy   heat capacity  entropy
                                   cal/mol     cal/K/mol   cal/K/mol   J/K/mol
 298.15  VIB   9.76                 1827.470     13.337     10.616
         ROT  0.267E+05              888.752      2.981     23.236
         INT  0.261E+06             2716.222     16.318     33.851
         TR   0.429E+27             1481.254      4.968     38.083
         TOT                        4197.4758    21.2859    71.9345   300.9739

       T/K    H(0)-H(T)+PV         H(T)/Eh          T*S/Eh         G(T)/Eh
   ------------------------------------------------------------------------
    298.15    0.668910E-02    0.137701E+00    0.341784E-01    0.103523E+00
   ------------------------------------------------------------------------

         :::::::::::::::::::::::::::::::::::::::::::::::::::::
         ::                  THERMODYNAMIC                  ::
         :::::::::::::::::::::::::::::::::::::::::::::::::::::
         :: total free energy         -13.560652869297 Eh   ::
         ::.................................................::
         :: total energy              -13.664175670127 Eh   ::
         :: zero point energy           0.131012095450 Eh   ::
         :: G(RRHO) w/o ZPVE           -0.027489294620 Eh   ::
         :: G(RRHO) contrib.            0.103522800830 Eh   ::
         :::::::::::::::::::::::::::::::::::::::::::::::::::::

           -------------------------------------------------
          | TOTAL ENERGY              -13.664175670127 Eh   |
          | TOTAL ENTHALPY            -13.526474471201 Eh   |
          | TOTAL FREE ENERGY         -13.560652869297 Eh   |
          | GRADIENT NORM               0.000793385781 Eh/α |
          | HOMO-LUMO GAP              14.249389553081 eV   |
           -------------------------------------------------

 * finished run on 2024/04/17 at 11:33:29.642
