   * xtb version 6.6.1 (8d0f1dd) compiled by 'stahn@M-Bot' on 2023-08-01
          program call               : xtb folded.xyz --gfn 2 --ohess -P 4

   ID    Z sym.   atoms
    1    6 C      1-8
    2    1 H      9-26

          :  Hamiltonian                  GFN2-xTB          :
 * total energy  :   -26.3191236 Eh     change       -0.2136602E-10 Eh
 * total energy  :   -26.3206049 Eh     change       -0.1481300E-02 Eh
 * total energy  :   -26.3208095 Eh     change       -0.2045267E-03 Eh
 * total energy  :   -26.3208206 Eh     change       -0.1113785E-04 Eh
 * total energy  :   -26.3208323 Eh     change       -0.1169406E-04 Eh
 * total energy  :   -26.3208376 Eh     change       -0.5296108E-05 Eh
 * total energy  :   -26.3208487 Eh     change       -0.1113771E-04 Eh
 * total energy  :   -26.3208542 Eh     change       -0.5498147E-05 Eh
 * total energy  :   -26.3208664 Eh     change       -0.1217973E-04 Eh
 * total energy  :   -26.3208778 Eh     change       -0.1134511E-04 Eh
 * total energy  :   -26.3208855 Eh     change       -0.7735181E-05 Eh
 * total energy  :   -26.3208887 Eh     change       -0.3190109E-05 Eh
   *** GEOMETRY OPTIMIZATION CONVERGED AFTER 12 ITERATIONS ***

 final structure:
================
26
 xtb: 6.6.1 (8d0f1dd)
C           -3.57414903732645       -0.28418990156101        1.16447481492408
C           -2.66847798469895       -0.56118216696429       -0.02932296297623
C           -1.39540352849178        0.28117250797653        0.01036189814832
C           -0.49016077576986       -0.00580417645268       -1.18535932843510
C            0.72872941989392        0.91497726017351       -1.26623241920789
C            1.69186322841307        0.81956316586106       -0.08183539842750
C            2.32716922297103       -0.55966194939974        0.07865029846328
C            3.38545849127853       -0.56503614486074        1.17547683731032
H           -3.05394544652595       -0.49664703380282        2.09620587135227
H           -4.46628114197469       -0.90483943466481        1.12072994968081
H           -3.88231383778729        0.75921787752219        1.17593120596003
H           -2.39797172720784       -1.61981137125097       -0.04104856410440
H           -3.21267931206784       -0.35014141854021       -0.95297666422107
H           -1.66329869545869        1.34064041186800        0.01466928799701
H           -0.86204221887091        0.06858254313299        0.93839811172513
H           -0.16493326813229       -1.04708254955720       -1.15203953735454
H           -1.07222898133596        0.12146559261802       -2.10217473407092
H            1.27764687169503        0.68095156386645       -2.18222091496702
H            0.38102397288447        1.94820884369159       -1.34692781521903
H            2.48741708248457        1.55448627283575       -0.23165514703401
H            1.17269330130846        1.08884532740929        0.83955337672612
H            1.55871201024306       -1.29428753513085        0.32429218129256
H            2.78409633390453       -0.85805223644883       -0.86796257712532
H            2.94725052323886       -0.27719512399875        2.12895077333467
H            4.18306063194686        0.13711050871817        0.94151809184778
H            3.82143886538606       -1.55562883304056        1.28368036438073
           -------------------------------------------------
          |                Final Singlepoint                |
           -------------------------------------------------

          :  Hamiltonian                  GFN2-xTB          :
         :: gradient norm              0.000239773411 Eh/a0 ::
         :: HOMO-LUMO gap             13.029811360622 eV    ::
         :: SCC energy               -26.718348189343 Eh    ::
         :: -> dispersion             -0.015711189071 Eh    ::
         :: repulsion energy           0.397396977082 Eh    ::

    * Orbital Energies and Occupations

         #    Occupation            Energy/Eh            Energy/eV
      -------------------------------------------------------------
         1        2.0000           -0.6223331             -16.9345
       ...           ...                  ...                  ...
        13        2.0000           -0.4883266             -13.2880
        14        2.0000           -0.4784025             -13.0180
        15        2.0000           -0.4692577             -12.7692
        16        2.0000           -0.4674311             -12.7194
        17        2.0000           -0.4510640             -12.2741
        18        2.0000           -0.4485212             -12.2049
        19        2.0000           -0.4413362             -12.0094
        20        2.0000           -0.4353029             -11.8452
        21        2.0000           -0.4261966             -11.5974
        22        2.0000           -0.4233510             -11.5200
        23        2.0000           -0.4179476             -11.3729
        24        2.0000           -0.4156993             -11.3118
        25        2.0000           -0.4111434             -11.1878 (HOMO)
        26                          0.0676934               1.8420 (LUMO)
        27                          0.0813637               2.2140
        28                          0.1047193               2.8496
        29                          0.1185163               3.2250
        30                          0.1234423               3.3590
        31                          0.1273202               3.4646
        32                          0.1455154               3.9597
        33                          0.1493434               4.0638
        34                          0.1592879               4.3344
        35                          0.1721023               4.6831
        36                          0.1755615               4.7773
       ...                                ...                  ...
        50                          0.3192924               8.6884
      -------------------------------------------------------------
                  HL-Gap            0.4788368 Eh           13.0298 eV

     #   Z          covCN         q      C6AA      α(0)
     1   6 C        3.752    -0.102    22.501     6.765
     2   6 C        3.801    -0.053    21.521     6.605
     3   6 C        3.802    -0.059    21.628     6.621
     4   6 C        3.802    -0.058    21.617     6.620
     5   6 C        3.801    -0.058    21.609     6.619
     6   6 C        3.802    -0.059    21.628     6.621
     7   6 C        3.800    -0.053    21.518     6.605
     8   6 C        3.752    -0.102    22.502     6.765
     9   1 H        0.925     0.033     2.548     2.496
    10   1 H        0.925     0.032     2.559     2.502
    11   1 H        0.925     0.033     2.547     2.496
    12   1 H        0.924     0.027     2.625     2.534
    13   1 H        0.924     0.027     2.627     2.535
    14   1 H        0.924     0.029     2.598     2.521
    15   1 H        0.924     0.033     2.545     2.495
    16   1 H        0.924     0.030     2.581     2.513
    17   1 H        0.924     0.027     2.636     2.539
    18   1 H        0.924     0.028     2.618     2.531
    19   1 H        0.924     0.028     2.612     2.528
    20   1 H        0.924     0.028     2.615     2.529
    21   1 H        0.924     0.032     2.561     2.502
    22   1 H        0.924     0.032     2.563     2.503
    23   1 H        0.924     0.028     2.617     2.530
    24   1 H        0.925     0.032     2.559     2.501
    25   1 H        0.925     0.032     2.563     2.504
    26   1 H        0.925     0.032     2.565     2.504

Wiberg/Mayer (AO) data.
largest (>0.10) Wiberg bond orders for each atom

     #   Z sym  total        # sym  WBO       # sym  WBO       # sym  WBO
 ---------------------------------------------------------------------------
     1   6 C    3.997 --     2 C    1.019    11 H    0.988     9 H    0.988
                            10 H    0.988
     2   6 C    3.998 --     1 C    1.019     3 C    1.008    12 H    0.979
                            13 H    0.979
     3   6 C    3.998 --     4 C    1.008     2 C    1.008    14 H    0.977
                            15 H    0.975
     4   6 C    3.998 --     3 C    1.008     5 C    1.007    17 H    0.977
                            16 H    0.976
     5   6 C    3.997 --     6 C    1.007     4 C    1.007    19 H    0.978
                            18 H    0.977
     6   6 C    3.997 --     7 C    1.009     5 C    1.007    20 H    0.977
                            21 H    0.976
     7   6 C    3.998 --     8 C    1.019     6 C    1.009    23 H    0.978
                            22 H    0.977
     8   6 C    3.997 --     7 C    1.019    24 H    0.988    25 H    0.988
                            26 H    0.988
     9   1 H    0.999 --     1 C    0.988
    10   1 H    0.999 --     1 C    0.988
    11   1 H    0.999 --     1 C    0.988
    12   1 H    0.999 --     2 C    0.979
    13   1 H    0.999 --     2 C    0.979
    14   1 H    0.999 --     3 C    0.977
    15   1 H    0.999 --     3 C    0.975
    16   1 H    0.999 --     4 C    0.976
    17   1 H    0.999 --     4 C    0.977
    18   1 H    0.999 --     5 C    0.977
    19   1 H    0.999 --     5 C    0.978
    20   1 H    0.999 --     6 C    0.977
    21   1 H    0.999 --     6 C    0.976
    22   1 H    0.999 --     7 C    0.977
    23   1 H    0.999 --     7 C    0.978
    24   1 H    0.999 --     8 C    0.988
    25   1 H    0.999 --     8 C    0.988
    26   1 H    0.999 --     8 C    0.988
 ---------------------------------------------------------------------------

molecular dipole:
                 x           y           z       tot (Debye)
 q only:        0.001       0.002       0.015
   full:        0.001       0.002       0.011       0.029

 projected vibrational frequencies (cm⁻¹)
eigval :       -0.00    -0.00     0.00     0.00     0.00     0.00
eigval :       35.04    62.52    70.79   104.22   151.48   202.79
eigval :      227.47   234.56   265.30   295.18   399.74   416.63
eigval :      500.25   757.93   779.95   808.70   857.61   890.69
eigval :      920.84   944.85   956.13   989.73  1048.62  1069.13
eigval :     1084.34  1095.39  1113.37  1148.04  1154.88  1161.15
eigval :     1217.35  1230.16  1258.63  1277.52  1282.05  1286.48
eigval :     1291.57  1310.84  1350.09  1363.35  1374.31  1378.09
eigval :     1416.47  1416.76  1489.61  1492.78  1497.67  1500.49
eigval :     1502.59  1504.70  1505.37  1505.91  1508.10  1508.92
eigval :     2955.36  2955.57  2957.76  2959.81  2968.58  2971.54
eigval :     2975.84  2977.43  2985.95  2988.53  2992.53  2996.19
eigval :     3028.06  3028.95  3030.74  3031.34  3036.50  3037.08

   temp. (K)  partition function   enthalpy   heat capacity  entropy
                                   cal/mol     cal/K/mol   cal/K/mol   J/K/mol
 298.15  VIB  0.494E+04             5070.020     31.201     32.075
         ROT  0.665E+06              888.752      2.981     29.625
         INT  0.328E+10             5958.773     34.182     61.700
         TR   0.118E+28             1481.254      4.968     40.096
         TOT                        7440.0267    39.1503   101.7968   425.9180

       T/K    H(0)-H(T)+PV         H(T)/Eh          T*S/Eh         G(T)/Eh
   ------------------------------------------------------------------------
    298.15    0.118564E-01    0.255837E+00    0.483670E-01    0.207470E+00
   ------------------------------------------------------------------------

         :::::::::::::::::::::::::::::::::::::::::::::::::::::
         ::                  THERMODYNAMIC                  ::
         :::::::::::::::::::::::::::::::::::::::::::::::::::::
         :: total free energy         -26.113419087709 Eh   ::
         ::.................................................::
         :: total energy              -26.320888684410 Eh   ::
         :: zero point energy           0.243980121994 Eh   ::
         :: G(RRHO) w/o ZPVE           -0.036510525293 Eh   ::
         :: G(RRHO) contrib.            0.207469596701 Eh   ::
         :::::::::::::::::::::::::::::::::::::::::::::::::::::

           -------------------------------------------------
          | TOTAL ENERGY              -26.320888684410 Eh   |
          | TOTAL ENTHALPY            -26.065052125096 Eh   |
          | TOTAL FREE ENERGY         -26.113419087709 Eh   |
          | GRADIENT NORM               0.000239769585 Eh/α |
          | HOMO-LUMO GAP              13.029811306273 eV   |
           -------------------------------------------------

 * finished run on 2024/04/23 at 12:10:21.571
