   * xtb version 6.6.1 (8d0f1dd) compiled by 'stahn@M-Bot' on 2023-08-01
          program call               : xtb unfolded.xyz --gfn 2 --ohess -P 4

   ID    Z sym.   atoms
    1    6 C      1-8
    2    1 H      9-26

          :  Hamiltonian                  GFN2-xTB          :
 * total energy  :   -26.3210461 Eh     change       -0.1047056E-09 Eh
 * total energy  :   -26.3224080 Eh     change       -0.1361860E-02 Eh
 * total energy  :   -26.3226158 Eh     change       -0.2078430E-03 Eh
 * total energy  :   -26.3226281 Eh     change       -0.1225033E-04 Eh
 * total energy  :   -26.3226185 Eh     change        0.9616920E-05 Eh
 * total energy  :   -26.3226292 Eh     change       -0.1072682E-04 Eh
 * total energy  :   -26.3226309 Eh     change       -0.1723233E-05 Eh
   *** GEOMETRY OPTIMIZATION CONVERGED AFTER 7 ITERATIONS ***

 final structure:
================
26
 xtb: 6.6.1 (8d0f1dd)
C           -4.44084156239096        0.26931489423907       -0.00003070143570
C           -3.14995594482958       -0.53985754064379       -0.00892700920641
C           -1.91447142850848        0.35703438590595        0.00775714339878
C           -0.61770519966916       -0.44871650919230        0.00130033200611
C            0.61768018524917        0.44844207030000        0.00197729903474
C            1.91452393753410       -0.35719585596469        0.00651347158076
C            3.14984982943454        0.53992906936462       -0.00965340063774
C            4.44091844928215       -0.26892702478300        0.00097685736339
H           -4.48935162609478        0.92006879706906       -0.87065207800155
H           -4.49683882631015        0.88899965879178        0.89251815065010
H           -5.30667500501814       -0.38884379040871       -0.01531188562038
H           -3.12870453947465       -1.19859759337423        0.86261024785779
H           -3.12404728368201       -1.17149077078639       -0.90018667443404
H           -1.93528007546074        1.01446600288159       -0.86506140959404
H           -1.94134704373510        0.99074073727035        0.89775052043522
H           -0.59250662109736       -1.09860937951196        0.87965857572764
H           -0.59652656176725       -1.09060372831971       -0.88304304781674
H            0.59619457650879        1.09207497266765       -0.88109228883216
H            0.59272612450032        1.09660182158347        0.88162136854599
H            1.94200387632109       -0.99208519109008        0.89564591277719
H            1.93491412285662       -1.01345370849189       -0.86719410339854
H            3.12460421400672        1.17100822481611       -0.90132091643765
H            3.12766411963697        1.19920533384156        0.86145950646282
H            4.49620266052336       -0.88797975381400        0.89400839646553
H            5.30660058963360        0.38943911854490       -0.01390206884049
H            4.49044203255093       -0.92026824089536       -0.86914619805064
           -------------------------------------------------
          |                Final Singlepoint                |
           -------------------------------------------------

          :  Hamiltonian                  GFN2-xTB          :
         :: gradient norm              0.000610103641 Eh/a0 ::
         :: HOMO-LUMO gap             12.582020079693 eV    ::
         :: SCC energy               -26.719931808557 Eh    ::
         :: -> dispersion             -0.014823787211 Eh    ::
         :: repulsion energy           0.397396064245 Eh    ::

    * Orbital Energies and Occupations

         #    Occupation            Energy/Eh            Energy/eV
      -------------------------------------------------------------
         1        2.0000           -0.6222910             -16.9334
       ...           ...                  ...                  ...
        13        2.0000           -0.4894700             -13.3192
        14        2.0000           -0.4826059             -13.1324
        15        2.0000           -0.4673184             -12.7164
        16        2.0000           -0.4664664             -12.6932
        17        2.0000           -0.4488675             -12.2143
        18        2.0000           -0.4465511             -12.1513
        19        2.0000           -0.4437347             -12.0746
        20        2.0000           -0.4324059             -11.7664
        21        2.0000           -0.4272460             -11.6260
        22        2.0000           -0.4270612             -11.6209
        23        2.0000           -0.4186721             -11.3926
        24        2.0000           -0.4165704             -11.3355
        25        2.0000           -0.4151593             -11.2971 (HOMO)
        26                          0.0472215               1.2850 (LUMO)
        27                          0.1067740               2.9055
        28                          0.1142671               3.1094
        29                          0.1152009               3.1348
        30                          0.1238388               3.3698
        31                          0.1355530               3.6886
        32                          0.1393596               3.7922
        33                          0.1489650               4.0535
        34                          0.1623796               4.4186
        35                          0.1721142               4.6835
        36                          0.1753479               4.7715
       ...                                ...                  ...
        50                          0.3230017               8.7893
      -------------------------------------------------------------
                  HL-Gap            0.4623807 Eh           12.5820 eV

     #   Z          covCN         q      C6AA      α(0)
     1   6 C        3.752    -0.102    22.509     6.766
     2   6 C        3.801    -0.053    21.521     6.605
     3   6 C        3.803    -0.059    21.632     6.622
     4   6 C        3.803    -0.058    21.619     6.620
     5   6 C        3.803    -0.058    21.619     6.620
     6   6 C        3.803    -0.059    21.632     6.622
     7   6 C        3.801    -0.053    21.522     6.605
     8   6 C        3.752    -0.102    22.509     6.766
     9   1 H        0.925     0.033     2.542     2.493
    10   1 H        0.925     0.033     2.542     2.493
    11   1 H        0.925     0.033     2.550     2.497
    12   1 H        0.924     0.028     2.609     2.526
    13   1 H        0.924     0.028     2.609     2.526
    14   1 H        0.924     0.030     2.592     2.518
    15   1 H        0.924     0.030     2.592     2.518
    16   1 H        0.924     0.028     2.609     2.526
    17   1 H        0.924     0.028     2.609     2.526
    18   1 H        0.924     0.028     2.609     2.526
    19   1 H        0.924     0.028     2.609     2.526
    20   1 H        0.924     0.030     2.592     2.518
    21   1 H        0.924     0.030     2.592     2.518
    22   1 H        0.924     0.028     2.609     2.526
    23   1 H        0.924     0.028     2.609     2.526
    24   1 H        0.925     0.033     2.542     2.493
    25   1 H        0.925     0.033     2.550     2.497
    26   1 H        0.925     0.033     2.542     2.493

Wiberg/Mayer (AO) data.
largest (>0.10) Wiberg bond orders for each atom

     #   Z sym  total        # sym  WBO       # sym  WBO       # sym  WBO
 ---------------------------------------------------------------------------
     1   6 C    3.997 --     2 C    1.019    10 H    0.988     9 H    0.988
                            11 H    0.988
     2   6 C    3.998 --     1 C    1.019     3 C    1.008    12 H    0.979
                            13 H    0.979
     3   6 C    3.997 --     2 C    1.008     4 C    1.007    15 H    0.978
                            14 H    0.977
     4   6 C    3.997 --     3 C    1.007     5 C    1.007    16 H    0.978
                            17 H    0.978
     5   6 C    3.997 --     6 C    1.007     4 C    1.007    19 H    0.978
                            18 H    0.978
     6   6 C    3.997 --     7 C    1.008     5 C    1.007    20 H    0.978
                            21 H    0.978
     7   6 C    3.998 --     8 C    1.019     6 C    1.008    22 H    0.979
                            23 H    0.979
     8   6 C    3.997 --     7 C    1.019    24 H    0.988    26 H    0.988
                            25 H    0.988
     9   1 H    0.999 --     1 C    0.988
    10   1 H    0.999 --     1 C    0.988
    11   1 H    0.999 --     1 C    0.988
    12   1 H    0.999 --     2 C    0.979
    13   1 H    0.999 --     2 C    0.979
    14   1 H    0.999 --     3 C    0.977
    15   1 H    0.999 --     3 C    0.978
    16   1 H    0.999 --     4 C    0.978
    17   1 H    0.999 --     4 C    0.978
    18   1 H    0.999 --     5 C    0.978
    19   1 H    0.999 --     5 C    0.978
    20   1 H    0.999 --     6 C    0.978
    21   1 H    0.999 --     6 C    0.978
    22   1 H    0.999 --     7 C    0.979
    23   1 H    0.999 --     7 C    0.979
    24   1 H    0.999 --     8 C    0.988
    25   1 H    0.999 --     8 C    0.988
    26   1 H    0.999 --     8 C    0.988
 ---------------------------------------------------------------------------

molecular dipole:
                 x           y           z       tot (Debye)
 q only:        0.000       0.000      -0.000
   full:        0.000       0.000      -0.000       0.000

 projected vibrational frequencies (cm⁻¹)
eigval :       -0.00    -0.00     0.00     0.00     0.00     0.00
eigval :       44.53    67.10    80.53   101.46   128.65   147.31
eigval :      199.36   233.15   235.37   279.01   341.69   469.52
eigval :      469.60   769.21   774.03   795.36   841.09   903.92
eigval :      933.66   949.28   968.37  1020.26  1044.65  1074.97
eigval :     1097.78  1105.62  1109.12  1123.02  1145.88  1198.99
eigval :     1217.40  1240.21  1249.31  1274.81  1277.97  1285.73
eigval :     1293.20  1296.13  1327.47  1360.40  1377.90  1379.69
eigval :     1416.61  1416.70  1495.96  1496.11  1498.83  1499.62
eigval :     1502.05  1504.75  1505.11  1505.13  1508.07  1508.25
eigval :     2950.97  2953.30  2957.11  2962.79  2970.06  2970.87
eigval :     2970.95  2974.63  2975.75  2977.05  2981.37  2987.89
eigval :     3028.91  3029.10  3031.21  3031.41  3036.83  3037.23

   temp. (K)  partition function   enthalpy   heat capacity  entropy
                                   cal/mol     cal/K/mol   cal/K/mol   J/K/mol
 298.15  VIB  0.578E+04             5213.188     31.718     33.468
         ROT  0.270E+06              888.752      2.981     27.833
         INT  0.156E+10             6101.941     34.699     61.301
         TR   0.118E+28             1481.254      4.968     40.096
         TOT                        7583.1947    39.6668   101.3976   424.2476

       T/K    H(0)-H(T)+PV         H(T)/Eh          T*S/Eh         G(T)/Eh
   ------------------------------------------------------------------------
    298.15    0.120846E-01    0.255660E+00    0.481773E-01    0.207483E+00
   ------------------------------------------------------------------------

         :::::::::::::::::::::::::::::::::::::::::::::::::::::
         ::                  THERMODYNAMIC                  ::
         :::::::::::::::::::::::::::::::::::::::::::::::::::::
         :: total free energy         -26.115147915785 Eh   ::
         ::.................................................::
         :: total energy              -26.322630910319 Eh   ::
         :: zero point energy           0.243575675802 Eh   ::
         :: G(RRHO) w/o ZPVE           -0.036092681268 Eh   ::
         :: G(RRHO) contrib.            0.207482994534 Eh   ::
         :::::::::::::::::::::::::::::::::::::::::::::::::::::

           -------------------------------------------------
          | TOTAL ENERGY              -26.322630910319 Eh   |
          | TOTAL ENTHALPY            -26.066970644554 Eh   |
          | TOTAL FREE ENERGY         -26.115147915785 Eh   |
          | GRADIENT NORM               0.000610115071 Eh/α |
          | HOMO-LUMO GAP              12.582020162016 eV   |
           -------------------------------------------------

 * finished run on 2024/04/23 at 12:10:22.180
