   * xtb version 6.6.1 (8d0f1dd) compiled by 'stahn@M-Bot' on 2023-08-01
          program call               : xtb unfolded.xyz --gfn 2 --ohess -P 4

   ID    Z sym.   atoms
    1    6 C      1-10
    2    1 H      11-32

          :  Hamiltonian                  GFN2-xTB          :
 * total energy  :   -32.6484670 Eh     change       -0.1075762E-10 Eh
 * total energy  :   -32.6502536 Eh     change       -0.1786609E-02 Eh
 * total energy  :   -32.6505248 Eh     change       -0.2712810E-03 Eh
 * total energy  :   -32.6505388 Eh     change       -0.1396502E-04 Eh
 * total energy  :   -32.6505485 Eh     change       -0.9693139E-05 Eh
 * total energy  :   -32.6505534 Eh     change       -0.4921538E-05 Eh
   *** GEOMETRY OPTIMIZATION CONVERGED AFTER 6 ITERATIONS ***

 final structure:
================
32
 xtb: 6.6.1 (8d0f1dd)
C            5.27350025569948       -0.84481849113560       -0.13872504377985
C            3.81914580211141       -0.92207323345490        0.30962426641877
C            3.00268918774005        0.26791792120185       -0.18874911281578
C            1.54669387130742        0.18789886713473        0.26348466365780
C            0.72087710103024        1.36354071091364       -0.25371785420880
C           -0.72009776393608        1.36197274299261        0.25857056541772
C           -1.54931390514017        0.19541523245491       -0.27344377266883
C           -3.00091316478607        0.26526336026444        0.19434217601035
C           -3.82292501277929       -0.91278771919857       -0.32286103650264
C           -5.26995038107087       -0.85092481495726        0.15090780174521
H            5.33700618070814       -0.83081428287833       -1.22466326812488
H            5.74213594232224        0.05992382305369        0.24236657848944
H            5.83349693554678       -1.70225368262803        0.22719324528935
H            3.37294414487792       -1.84603807492446       -0.06556546904523
H            3.77694685609964       -0.95502814527216        1.40077244289257
H            3.44877093986847        1.19363113435853        0.18269795826266
H            3.04003133725497        0.29933174701194       -1.28034618885627
H            1.11940584213813       -0.74969577495831       -0.09574720943914
H            1.50864588461138        0.17390101731052        1.35543741233263
H            0.71507147189695        1.34798697810763       -1.34617961909980
H            1.20217082992129        2.29357179430897        0.05926196773034
H           -1.19924814900874        2.29732084751954       -0.04157391683973
H           -0.71378790054051        1.33175158674670        1.35074897251131
H           -1.52134953428562        0.20211315001259       -1.36575822970585
H           -1.11775724068392       -0.74826276266361        0.06405158376674
H           -3.45027177616894        1.19939700487822       -0.15115987136837
H           -3.02741161141943        0.27149488479259        1.28670294311098
H           -3.79820378478724       -0.91639620508550       -1.41501798728587
H           -3.36905514474422       -1.84546238071136        0.02024224033039
H           -5.74635991883324        0.06282678420005       -0.19765238911961
H           -5.83436176033264       -1.69933504605646       -0.22898660505073
H           -5.31566553461755       -0.86661597333858        1.23772075594511
           -------------------------------------------------
          |                Final Singlepoint                |
           -------------------------------------------------

          :  Hamiltonian                  GFN2-xTB          :
         :: gradient norm              0.000671801787 Eh/a0 ::
         :: HOMO-LUMO gap             12.607636396306 eV    ::
         :: SCC energy               -33.141741486021 Eh    ::
         :: -> dispersion             -0.019654311670 Eh    ::
         :: repulsion energy           0.491291986037 Eh    ::

    * Orbital Energies and Occupations

         #    Occupation            Energy/Eh            Energy/eV
      -------------------------------------------------------------
         1        2.0000           -0.6228789             -16.9494
       ...           ...                  ...                  ...
        19        2.0000           -0.4659503             -12.6792
        20        2.0000           -0.4604113             -12.5284
        21        2.0000           -0.4573836             -12.4460
        22        2.0000           -0.4442649             -12.0891
        23        2.0000           -0.4424419             -12.0395
        24        2.0000           -0.4337506             -11.8030
        25        2.0000           -0.4320313             -11.7562
        26        2.0000           -0.4298657             -11.6972
        27        2.0000           -0.4231414             -11.5143
        28        2.0000           -0.4196516             -11.4193
        29        2.0000           -0.4184454             -11.3865
        30        2.0000           -0.4139839             -11.2651
        31        2.0000           -0.4116305             -11.2010 (HOMO)
        32                          0.0516917               1.4066 (LUMO)
        33                          0.0682606               1.8575
        34                          0.1101087               2.9962
        35                          0.1114185               3.0319
        36                          0.1183519               3.2205
        37                          0.1238568               3.3703
        38                          0.1336244               3.6361
        39                          0.1428803               3.8880
        40                          0.1491008               4.0572
        41                          0.1502903               4.0896
        42                          0.1585537               4.3145
       ...                                ...                  ...
        62                          0.3252596               8.8508
      -------------------------------------------------------------
                  HL-Gap            0.4633221 Eh           12.6076 eV

     #   Z          covCN         q      C6AA      α(0)
     1   6 C        3.752    -0.102    22.510     6.766
     2   6 C        3.801    -0.053    21.521     6.605
     3   6 C        3.803    -0.059    21.635     6.622
     4   6 C        3.803    -0.059    21.632     6.622
     5   6 C        3.802    -0.058    21.615     6.619
     6   6 C        3.802    -0.058    21.615     6.619
     7   6 C        3.803    -0.059    21.632     6.622
     8   6 C        3.803    -0.059    21.635     6.622
     9   6 C        3.801    -0.053    21.521     6.605
    10   6 C        3.752    -0.102    22.510     6.766
    11   1 H        0.925     0.033     2.542     2.494
    12   1 H        0.925     0.033     2.543     2.494
    13   1 H        0.925     0.032     2.552     2.498
    14   1 H        0.924     0.028     2.612     2.527
    15   1 H        0.924     0.028     2.610     2.526
    16   1 H        0.924     0.029     2.604     2.524
    17   1 H        0.924     0.029     2.599     2.521
    18   1 H        0.924     0.031     2.575     2.509
    19   1 H        0.924     0.029     2.602     2.523
    20   1 H        0.924     0.029     2.596     2.520
    21   1 H        0.924     0.028     2.609     2.526
    22   1 H        0.924     0.028     2.610     2.526
    23   1 H        0.924     0.029     2.596     2.520
    24   1 H        0.924     0.029     2.603     2.523
    25   1 H        0.924     0.031     2.573     2.509
    26   1 H        0.924     0.029     2.605     2.524
    27   1 H        0.924     0.029     2.598     2.521
    28   1 H        0.924     0.028     2.610     2.526
    29   1 H        0.924     0.028     2.612     2.527
    30   1 H        0.925     0.033     2.543     2.494
    31   1 H        0.925     0.032     2.552     2.498
    32   1 H        0.925     0.033     2.542     2.494

Wiberg/Mayer (AO) data.
largest (>0.10) Wiberg bond orders for each atom

     #   Z sym  total        # sym  WBO       # sym  WBO       # sym  WBO
 ---------------------------------------------------------------------------
     1   6 C    3.997 --     2 C    1.019    12 H    0.988    11 H    0.988
                            13 H    0.988
     2   6 C    3.998 --     1 C    1.019     3 C    1.008    15 H    0.979
                            14 H    0.979
     3   6 C    3.997 --     2 C    1.008     4 C    1.007    17 H    0.978
                            16 H    0.978
     4   6 C    3.998 --     5 C    1.008     3 C    1.007    19 H    0.977
                            18 H    0.975
     5   6 C    3.997 --     4 C    1.008     6 C    1.006    20 H    0.977
                            21 H    0.977
     6   6 C    3.997 --     7 C    1.008     5 C    1.006    23 H    0.977
                            22 H    0.977
     7   6 C    3.998 --     6 C    1.008     8 C    1.007    24 H    0.977
                            25 H    0.975
     8   6 C    3.997 --     9 C    1.008     7 C    1.007    27 H    0.978
                            26 H    0.978
     9   6 C    3.998 --    10 C    1.019     8 C    1.008    28 H    0.979
                            29 H    0.979
    10   6 C    3.997 --     9 C    1.019    30 H    0.988    32 H    0.988
                            31 H    0.988
    11   1 H    0.999 --     1 C    0.988
    12   1 H    0.999 --     1 C    0.988
    13   1 H    0.999 --     1 C    0.988
    14   1 H    0.999 --     2 C    0.979
    15   1 H    0.999 --     2 C    0.979
    16   1 H    0.999 --     3 C    0.978
    17   1 H    0.999 --     3 C    0.978
    18   1 H    0.999 --     4 C    0.975
    19   1 H    0.999 --     4 C    0.977
    20   1 H    0.999 --     5 C    0.977
    21   1 H    0.999 --     5 C    0.977
    22   1 H    0.999 --     6 C    0.977
    23   1 H    0.999 --     6 C    0.977
    24   1 H    0.999 --     7 C    0.977
    25   1 H    0.999 --     7 C    0.975
    26   1 H    0.999 --     8 C    0.978
    27   1 H    0.999 --     8 C    0.978
    28   1 H    0.999 --     9 C    0.979
    29   1 H    0.999 --     9 C    0.979
    30   1 H    0.999 --    10 C    0.988
    31   1 H    0.999 --    10 C    0.988
    32   1 H    0.999 --    10 C    0.988
 ---------------------------------------------------------------------------

molecular dipole:
                 x           y           z       tot (Debye)
 q only:        0.000      -0.005       0.000
   full:        0.000      -0.003       0.000       0.007

 projected vibrational frequencies (cm⁻¹)
eigval :       -0.00    -0.00    -0.00     0.00     0.00     0.00
eigval :       35.82    37.10    43.20    93.24    96.94   116.66
eigval :      119.68   142.21   169.05   231.67   232.50   243.43
eigval :      328.89   335.53   402.81   442.04   523.22   765.32
eigval :      772.26   785.49   800.13   854.62   879.44   937.47
eigval :      942.57   954.62   961.08  1003.32  1025.54  1076.62
eigval :     1076.98  1096.19  1101.33  1112.78  1120.37  1132.46
eigval :     1144.65  1177.21  1211.39  1221.26  1252.56  1254.11
eigval :     1265.60  1274.89  1280.94  1288.44  1292.12  1297.44
eigval :     1322.43  1326.59  1366.65  1368.06  1378.17  1380.96
eigval :     1415.76  1415.78  1491.22  1491.61  1496.16  1497.09
eigval :     1499.15  1500.27  1501.23  1504.30  1504.58  1504.59
eigval :     1507.86  1507.91  2955.38  2956.15  2957.27  2957.82
eigval :     2965.60  2966.26  2972.82  2974.07  2974.57  2975.74
eigval :     2979.17  2979.77  2982.43  2984.10  2990.31  2996.90
eigval :     3030.87  3030.92  3033.05  3033.12  3038.34  3038.56

   temp. (K)  partition function   enthalpy   heat capacity  entropy
                                   cal/mol     cal/K/mol   cal/K/mol   J/K/mol
 298.15  VIB  0.270E+06             6889.370     39.958     44.456
         ROT  0.768E+06              888.752      2.981     29.911
         INT  0.208E+12             7778.122     42.939     74.367
         TR   0.164E+28             1481.254      4.968     40.751
         TOT                        9259.3763    47.9067   115.1181   481.6542

       T/K    H(0)-H(T)+PV         H(T)/Eh          T*S/Eh         G(T)/Eh
   ------------------------------------------------------------------------
    298.15    0.147558E-01    0.314806E+00    0.546963E-01    0.260110E+00
   ------------------------------------------------------------------------

         :::::::::::::::::::::::::::::::::::::::::::::::::::::
         ::                  THERMODYNAMIC                  ::
         :::::::::::::::::::::::::::::::::::::::::::::::::::::
         :: total free energy         -32.390443766026 Eh   ::
         ::.................................................::
         :: total energy              -32.650553428374 Eh   ::
         :: zero point energy           0.300050234482 Eh   ::
         :: G(RRHO) w/o ZPVE           -0.039940572134 Eh   ::
         :: G(RRHO) contrib.            0.260109662348 Eh   ::
         :::::::::::::::::::::::::::::::::::::::::::::::::::::

           -------------------------------------------------
          | TOTAL ENERGY              -32.650553428374 Eh   |
          | TOTAL ENTHALPY            -32.335747438573 Eh   |
          | TOTAL FREE ENERGY         -32.390443766026 Eh   |
          | GRADIENT NORM               0.000671800985 Eh/α |
          | HOMO-LUMO GAP              12.607636337980 eV   |
           -------------------------------------------------

 * finished run on 2024/04/20 at 10:58:16.091
