   * xtb version 6.6.1 (8d0f1dd) compiled by 'stahn@M-Bot' on 2023-08-01
          program call               : xtb unfolded.xyz --gfn 2 --ohess -P 4

   ID    Z sym.   atoms
    1    6 C      1-17
    2    1 H      18-53

          :  Hamiltonian                  GFN2-xTB          :
 * total energy  :   -54.7970197 Eh     change       -0.3944791E-09 Eh
 * total energy  :   -54.7999816 Eh     change       -0.2961907E-02 Eh
 * total energy  :   -54.8005130 Eh     change       -0.5313962E-03 Eh
 * total energy  :   -54.8005721 Eh     change       -0.5908997E-04 Eh
 * total energy  :   -54.8006422 Eh     change       -0.7017250E-04 Eh
 * total energy  :   -54.8006582 Eh     change       -0.1596185E-04 Eh
 * total energy  :   -54.8006702 Eh     change       -0.1204586E-04 Eh
 * total energy  :   -54.8006744 Eh     change       -0.4198429E-05 Eh
 * total energy  :   -54.8006812 Eh     change       -0.6736033E-05 Eh
 * total energy  :   -54.8006851 Eh     change       -0.3912266E-05 Eh
   *** GEOMETRY OPTIMIZATION CONVERGED AFTER 10 ITERATIONS ***

 final structure:
================
53
 xtb: 6.6.1 (8d0f1dd)
C           -1.16875942399615       -9.35987126320956       -0.40971351592096
C           -1.96655663095845       -8.08044880955316       -0.18951828389814
C           -1.08416413065783       -6.83778478467771       -0.28081272280481
C           -1.87790864475918       -5.54981939025745       -0.07629147048627
C           -0.98769183586303       -4.31123234806715       -0.14190307814713
C           -1.78187202957307       -3.02035227157603        0.04189438021495
C           -0.88540363929345       -1.78544622295461        0.00004036718877
C           -1.67878490707862       -0.49127661620782        0.16288396975334
C           -0.77613660547838        0.73926738747905        0.12679954928795
C           -1.57037829117869        2.03647582904058        0.26323088306784
C           -0.68060600227694        3.27641721462986        0.35240194979700
C            0.07542784659215        3.56461546484866       -0.94360323823395
C            0.81258794046085        4.90371333808111       -0.92165821890574
C            1.96778609717928        4.93537937465994        0.07690802835734
C            2.76423648630525        6.23456670343547       -0.01168689970671
C            3.90238786623829        6.28029715560416        1.00510023305255
C            4.69092025174324        7.58100336707134        0.91674984969671
H           -0.70832153120069       -9.35715049666955       -1.39544096634249
H           -0.38044884569858       -9.45048345026354        0.33463074649303
H           -1.81368129625771      -10.23243055280403       -0.33460606784984
H           -2.44124845793290       -8.11348842509709        0.79387198428400
H           -2.76045460085315       -8.01467272199706       -0.93712386466734
H           -0.60015380255557       -6.81129215543839       -1.26008228360199
H           -0.29668434721770       -6.89994677310444        0.47417883063623
H           -2.37734302505882       -5.58370341548455        0.89499348226539
H           -2.65352469021178       -5.47820906151051       -0.84261928933449
H           -0.22162636012175       -4.37672807510957        0.63447324051251
H           -0.47634757310468       -4.28508780178672       -1.10717628407428
H           -2.53611912233381       -2.94542982809188       -0.74504577626280
H           -2.30722887193946       -3.05238573494244        0.99937423462721
H           -0.14001476814507       -1.85394509823651        0.79605067194462
H           -0.34896782862497       -1.76165583751722       -0.95162204268255
H           -2.41937309154922       -0.41881015419227       -0.63720178702411
H           -2.22042676792881       -0.51631885722328        1.11154776767974
H           -0.22333861045700        0.74399692700333       -0.81397900400123
H           -0.04892173732195        0.67646604654661        0.93996002997201
H           -2.18271389287339        1.97892134867466        1.16686717572789
H           -2.24871808338468        2.13684861759191       -0.58744159882535
H           -1.30532743464740        4.14073649275869        0.59186554467039
H            0.02849769942562        3.14152921685671        1.17080820096346
H            0.79764706154634        2.76900940187767       -1.13400815468642
H           -0.63908770864251        3.57083868588261       -1.77073024912067
H            0.10629749013565        5.70260940986728       -0.68332835384302
H            1.20798825593631        5.10194442402496       -1.92127134927923
H            1.57979663061094        4.82741440725421        1.09112408785261
H            2.63319266396071        4.09044120851153       -0.11667999084285
H            3.17618446674415        6.33969636156278       -1.01832647750335
H            2.09416001366335        7.08043715470699        0.16015007735256
H            4.57401091556818        5.43608350529754        0.83246320217514
H            3.49049393880984        6.17379720454298        2.01139848985706
H            4.04124928070955        8.43355250827072        1.10307675967405
H            5.49357754205189        7.59415328669063        1.65057769598801
H            5.12832214149380        7.69525810320039       -0.07280746504671
           -------------------------------------------------
          |                Final Singlepoint                |
           -------------------------------------------------

          :  Hamiltonian                  GFN2-xTB          :
         :: gradient norm              0.000420175677 Eh/a0 ::
         :: HOMO-LUMO gap             12.081294225007 eV    ::
         :: SCC energy               -55.618427956880 Eh    ::
         :: -> dispersion             -0.035655291271 Eh    ::
         :: repulsion energy           0.818107246837 Eh    ::

    * Orbital Energies and Occupations

         #    Occupation            Energy/Eh            Energy/eV
      -------------------------------------------------------------
         1        2.0000           -0.6233612             -16.9625
       ...           ...                  ...                  ...
        40        2.0000           -0.4348258             -11.8322
        41        2.0000           -0.4311322             -11.7317
        42        2.0000           -0.4287304             -11.6663
        43        2.0000           -0.4279892             -11.6462
        44        2.0000           -0.4264581             -11.6045
        45        2.0000           -0.4223333             -11.4923
        46        2.0000           -0.4208720             -11.4525
        47        2.0000           -0.4187686             -11.3953
        48        2.0000           -0.4172051             -11.3527
        49        2.0000           -0.4164332             -11.3317
        50        2.0000           -0.4124147             -11.2224
        51        2.0000           -0.4109473             -11.1824
        52        2.0000           -0.4082696             -11.1096 (HOMO)
        53                          0.0357098               0.9717 (LUMO)
        54                          0.0571398               1.5549
        55                          0.0768369               2.0908
        56                          0.0881918               2.3998
        57                          0.1033833               2.8132
        58                          0.1110655               3.0222
        59                          0.1131256               3.0783
        60                          0.1147292               3.1219
        61                          0.1176806               3.2023
        62                          0.1226094               3.3364
        63                          0.1265452               3.4435
       ...                                ...                  ...
       104                          0.3268741               8.8947
      -------------------------------------------------------------
                  HL-Gap            0.4439794 Eh           12.0813 eV

     #   Z          covCN         q      C6AA      α(0)
     1   6 C        3.752    -0.102    22.510     6.766
     2   6 C        3.801    -0.053    21.524     6.605
     3   6 C        3.803    -0.059    21.634     6.622
     4   6 C        3.803    -0.058    21.623     6.620
     5   6 C        3.803    -0.058    21.618     6.620
     6   6 C        3.803    -0.058    21.620     6.620
     7   6 C        3.803    -0.058    21.619     6.620
     8   6 C        3.803    -0.058    21.623     6.620
     9   6 C        3.803    -0.059    21.632     6.622
    10   6 C        3.802    -0.058    21.621     6.620
    11   6 C        3.802    -0.059    21.628     6.621
    12   6 C        3.802    -0.059    21.628     6.621
    13   6 C        3.802    -0.058    21.618     6.620
    14   6 C        3.802    -0.059    21.633     6.622
    15   6 C        3.803    -0.059    21.635     6.622
    16   6 C        3.801    -0.053    21.521     6.605
    17   6 C        3.752    -0.102    22.509     6.766
    18   1 H        0.925     0.033     2.542     2.493
    19   1 H        0.925     0.033     2.541     2.493
    20   1 H        0.925     0.033     2.550     2.497
    21   1 H        0.924     0.028     2.609     2.526
    22   1 H        0.924     0.029     2.608     2.525
    23   1 H        0.924     0.030     2.590     2.517
    24   1 H        0.924     0.030     2.591     2.517
    25   1 H        0.924     0.029     2.607     2.525
    26   1 H        0.924     0.029     2.607     2.525
    27   1 H        0.924     0.029     2.600     2.522
    28   1 H        0.924     0.029     2.601     2.522
    29   1 H        0.924     0.029     2.602     2.522
    30   1 H        0.924     0.029     2.602     2.522
    31   1 H        0.924     0.029     2.601     2.522
    32   1 H        0.924     0.029     2.603     2.523
    33   1 H        0.924     0.028     2.608     2.526
    34   1 H        0.924     0.028     2.612     2.528
    35   1 H        0.924     0.031     2.569     2.507
    36   1 H        0.924     0.029     2.595     2.519
    37   1 H        0.924     0.028     2.613     2.528
    38   1 H        0.924     0.029     2.607     2.525
    39   1 H        0.924     0.029     2.599     2.521
    40   1 H        0.924     0.032     2.563     2.504
    41   1 H        0.924     0.032     2.564     2.504
    42   1 H        0.924     0.029     2.599     2.521
    43   1 H        0.924     0.028     2.609     2.526
    44   1 H        0.924     0.028     2.614     2.528
    45   1 H        0.924     0.031     2.578     2.511
    46   1 H        0.924     0.029     2.602     2.523
    47   1 H        0.924     0.029     2.604     2.524
    48   1 H        0.924     0.029     2.599     2.521
    49   1 H        0.924     0.028     2.610     2.527
    50   1 H        0.924     0.028     2.612     2.528
    51   1 H        0.925     0.033     2.543     2.494
    52   1 H        0.925     0.032     2.553     2.499
    53   1 H        0.925     0.033     2.544     2.494

Wiberg/Mayer (AO) data.
largest (>0.10) Wiberg bond orders for each atom

     #   Z sym  total        # sym  WBO       # sym  WBO       # sym  WBO
 ---------------------------------------------------------------------------
     1   6 C    3.997 --     2 C    1.019    18 H    0.988    19 H    0.988
                            20 H    0.988
     2   6 C    3.998 --     1 C    1.019     3 C    1.008    21 H    0.979
                            22 H    0.979
     3   6 C    3.997 --     2 C    1.008     4 C    1.007    23 H    0.978
                            24 H    0.978
     4   6 C    3.997 --     3 C    1.007     5 C    1.007    26 H    0.978
                            25 H    0.978
     5   6 C    3.997 --     4 C    1.007     6 C    1.007    28 H    0.978
                            27 H    0.978
     6   6 C    3.997 --     7 C    1.007     5 C    1.007    30 H    0.978
                            29 H    0.978
     7   6 C    3.997 --     6 C    1.007     8 C    1.007    31 H    0.978
                            32 H    0.977
     8   6 C    3.997 --     7 C    1.007     9 C    1.007    33 H    0.978
                            34 H    0.977
     9   6 C    3.997 --    10 C    1.008     8 C    1.007    36 H    0.977
                            35 H    0.976
    10   6 C    3.997 --     9 C    1.008    11 C    1.006    38 H    0.977
                            37 H    0.977
    11   6 C    3.997 --    12 C    1.009    10 C    1.006    39 H    0.977
                            40 H    0.976
    12   6 C    3.997 --    11 C    1.009    13 C    1.006    42 H    0.977
                            41 H    0.976
    13   6 C    3.997 --    14 C    1.008    12 C    1.006    43 H    0.977
                            44 H    0.977
    14   6 C    3.998 --    13 C    1.008    15 C    1.007    46 H    0.977
                            45 H    0.976
    15   6 C    3.997 --    16 C    1.008    14 C    1.007    48 H    0.978
                            47 H    0.977
    16   6 C    3.998 --    17 C    1.019    15 C    1.008    49 H    0.979
                            50 H    0.979
    17   6 C    3.997 --    16 C    1.019    53 H    0.988    51 H    0.988
                            52 H    0.988
    18   1 H    0.999 --     1 C    0.988
    19   1 H    0.999 --     1 C    0.988
    20   1 H    0.999 --     1 C    0.988
    21   1 H    0.999 --     2 C    0.979
    22   1 H    0.999 --     2 C    0.979
    23   1 H    0.999 --     3 C    0.978
    24   1 H    0.999 --     3 C    0.978
    25   1 H    0.999 --     4 C    0.978
    26   1 H    0.999 --     4 C    0.978
    27   1 H    0.999 --     5 C    0.978
    28   1 H    0.999 --     5 C    0.978
    29   1 H    0.999 --     6 C    0.978
    30   1 H    0.999 --     6 C    0.978
    31   1 H    0.999 --     7 C    0.978
    32   1 H    0.999 --     7 C    0.977
    33   1 H    0.999 --     8 C    0.978
    34   1 H    0.999 --     8 C    0.977
    35   1 H    0.999 --     9 C    0.976
    36   1 H    0.999 --     9 C    0.977
    37   1 H    0.999 --    10 C    0.977
    38   1 H    0.999 --    10 C    0.977
    39   1 H    0.999 --    11 C    0.977
    40   1 H    0.999 --    11 C    0.976
    41   1 H    0.999 --    12 C    0.976
    42   1 H    0.999 --    12 C    0.977
    43   1 H    0.999 --    13 C    0.977
    44   1 H    0.999 --    13 C    0.977
    45   1 H    0.999 --    14 C    0.976
    46   1 H    0.999 --    14 C    0.977
    47   1 H    0.999 --    15 C    0.977
    48   1 H    0.999 --    15 C    0.978
    49   1 H    0.999 --    16 C    0.979
    50   1 H    0.999 --    16 C    0.979
    51   1 H    0.999 --    17 C    0.988
    52   1 H    0.999 --    17 C    0.988
    53   1 H    0.999 --    17 C    0.988
 ---------------------------------------------------------------------------

molecular dipole:
                 x           y           z       tot (Debye)
 q only:        0.014      -0.001      -0.001
   full:        0.011       0.000      -0.001       0.029

 projected vibrational frequencies (cm⁻¹)
eigval :       -0.00    -0.00    -0.00    -0.00     0.00     0.00
eigval :        9.52    17.99    24.14    33.54    39.70    56.56
eigval :       62.00    74.81    80.71   105.07   109.34   119.30
eigval :      120.29   128.32   146.08   149.94   157.73   193.37
eigval :      215.58   233.70   233.95   259.13   271.17   318.44
eigval :      340.24   378.86   408.28   442.23   488.12   496.18
eigval :      557.60   766.93   768.56   769.94   774.86   785.11
eigval :      794.67   803.72   828.84   862.09   871.84   916.41
eigval :      931.37   940.88   942.67   953.40   983.47   991.26
eigval :     1020.10  1029.73  1038.51  1052.38  1060.20  1079.48
eigval :     1081.35  1094.29  1101.50  1103.25  1110.11  1112.32
eigval :     1114.10  1120.38  1131.51  1137.75  1146.27  1155.30
eigval :     1199.63  1204.54  1218.32  1221.38  1231.89  1248.34
eigval :     1254.61  1258.28  1265.33  1270.77  1274.47  1282.45
eigval :     1284.83  1285.81  1286.86  1293.04  1295.47  1296.82
eigval :     1298.81  1317.05  1321.23  1325.61  1346.42  1365.41
eigval :     1367.83  1375.88  1376.98  1378.22  1379.32  1381.51
eigval :     1416.25  1416.29  1489.42  1489.91  1494.49  1495.00
eigval :     1495.87  1495.93  1497.50  1498.12  1498.59  1500.18
eigval :     1500.84  1501.72  1502.30  1502.79  1504.88  1504.90
eigval :     1505.51  1508.00  1508.08  2953.31  2954.03  2954.76
eigval :     2955.51  2956.48  2956.85  2959.26  2960.19  2963.89
eigval :     2964.62  2965.35  2969.70  2972.22  2972.81  2972.96
eigval :     2973.79  2974.39  2974.53  2976.26  2976.98  2978.36
eigval :     2979.53  2980.85  2981.68  2983.88  2986.63  2988.30
eigval :     2990.85  2995.77  2996.67  3029.77  3030.06  3032.02
eigval :     3032.05  3037.53  3037.58

   temp. (K)  partition function   enthalpy   heat capacity  entropy
                                   cal/mol     cal/K/mol   cal/K/mol   J/K/mol
 298.15  VIB  0.419E+12            12841.856     70.418     85.650
         ROT  0.129E+08              888.752      2.981     35.521
         INT  0.542E+19            13730.608     73.399    121.171
         TR   0.361E+28             1481.254      4.968     42.314
         TOT                       15211.8619    78.3674   163.4857   684.0240

       T/K    H(0)-H(T)+PV         H(T)/Eh          T*S/Eh         G(T)/Eh
   ------------------------------------------------------------------------
    298.15    0.242416E-01    0.521451E+00    0.776773E-01    0.443773E+00
   ------------------------------------------------------------------------

         :::::::::::::::::::::::::::::::::::::::::::::::::::::
         ::                  THERMODYNAMIC                  ::
         :::::::::::::::::::::::::::::::::::::::::::::::::::::
         :: total free energy         -54.356911807889 Eh   ::
         ::.................................................::
         :: total energy              -54.800685083903 Eh   ::
         :: zero point energy           0.497208940857 Eh   ::
         :: G(RRHO) w/o ZPVE           -0.053435664843 Eh   ::
         :: G(RRHO) contrib.            0.443773276014 Eh   ::
         :::::::::::::::::::::::::::::::::::::::::::::::::::::

           -------------------------------------------------
          | TOTAL ENERGY              -54.800685083903 Eh   |
          | TOTAL ENTHALPY            -54.279234498036 Eh   |
          | TOTAL FREE ENERGY         -54.356911807889 Eh   |
          | GRADIENT NORM               0.000420168827 Eh/α |
          | HOMO-LUMO GAP              12.081294234356 eV   |
           -------------------------------------------------

 * finished run on 2024/04/23 at 12:10:59.010
