   * xtb version 6.6.1 (8d0f1dd) compiled by 'stahn@M-Bot' on 2023-08-01
          program call               : xtb folded.xyz --gfn 2 --ohess -P 4

   ID    Z sym.   atoms
    1    6 C      1-8
    2    1 H      9-26

          :  Hamiltonian                  GFN2-xTB          :
 * total energy  :   -26.3190876 Eh     change       -0.2117062E-10 Eh
 * total energy  :   -26.3205735 Eh     change       -0.1485844E-02 Eh
 * total energy  :   -26.3207800 Eh     change       -0.2065735E-03 Eh
 * total energy  :   -26.3207921 Eh     change       -0.1208253E-04 Eh
 * total energy  :   -26.3208062 Eh     change       -0.1410449E-04 Eh
 * total energy  :   -26.3208129 Eh     change       -0.6671209E-05 Eh
 * total energy  :   -26.3208282 Eh     change       -0.1535297E-04 Eh
 * total energy  :   -26.3208339 Eh     change       -0.5660378E-05 Eh
 * total energy  :   -26.3208532 Eh     change       -0.1927425E-04 Eh
 * total energy  :   -26.3208665 Eh     change       -0.1334835E-04 Eh
 * total energy  :   -26.3208803 Eh     change       -0.1372613E-04 Eh
 * total energy  :   -26.3208841 Eh     change       -0.3806445E-05 Eh
   *** GEOMETRY OPTIMIZATION CONVERGED AFTER 12 ITERATIONS ***

 final structure:
================
26
 xtb: 6.6.1 (8d0f1dd)
C            3.58585806863263        0.11161419282510       -1.18246457878309
C            2.67036509283146        0.56640810051072       -0.05260883066440
C            1.40510277938054       -0.28382774327441        0.03598037077151
C            0.48990819222356        0.17905793516474        1.16717309207003
C           -0.72814396890919       -0.72205433438576        1.37758552826526
C           -1.69132952369567       -0.79696186503043        0.19178249813286
C           -2.33842316725077        0.54182514498436       -0.15537006686396
C           -3.39573221233722        0.38788415295654       -1.24211872632419
H            3.90631454752118       -0.91602928502487       -1.02415528041553
H            4.47059690209888        0.74191672576605       -1.23674965847208
H            3.06845137782292        0.16421211424915       -2.13817929705337
H            3.21052755304435        0.51097502446120        0.89565465599244
H            2.39024843800885        1.61076663124547       -0.21109913625091
H            0.87557892949209       -0.22597016655370       -0.91660193038552
H            1.68264519932834       -1.32812387563787        0.20018024233613
H            1.06521455925129        0.19414376361858        2.09708157843172
H            0.16344216856939        1.20243954033458        0.97362157295590
H           -0.37925750166898       -1.73298997715348        1.60459103804102
H           -1.27802138669014       -0.36107071714083        2.25090299880167
H           -1.16960238354042       -1.18524340656857       -0.68467296108991
H           -2.48107335492332       -1.51116775118586        0.44081591308985
H           -2.79891253442400        0.96274388199219        0.74178776708347
H           -1.57628104809306        1.24306441850899       -0.49912266311768
H           -3.83887985063577        1.35072910094569       -1.48651218486150
H           -4.18849479634564       -0.28088525077931       -0.91313625644262
H           -2.95470807969146       -0.02595235482823       -2.14667868524725
           -------------------------------------------------
          |                Final Singlepoint                |
           -------------------------------------------------

          :  Hamiltonian                  GFN2-xTB          :
         :: gradient norm              0.000496534866 Eh/a0 ::
         :: HOMO-LUMO gap             13.024584530344 eV    ::
         :: SCC energy               -26.718209365229 Eh    ::
         :: -> dispersion             -0.015695223124 Eh    ::
         :: repulsion energy           0.397263935433 Eh    ::

    * Orbital Energies and Occupations

         #    Occupation            Energy/Eh            Energy/eV
      -------------------------------------------------------------
         1        2.0000           -0.6223186             -16.9342
       ...           ...                  ...                  ...
        13        2.0000           -0.4883067             -13.2875
        14        2.0000           -0.4784517             -13.0193
        15        2.0000           -0.4691325             -12.7657
        16        2.0000           -0.4675327             -12.7222
        17        2.0000           -0.4511514             -12.2765
        18        2.0000           -0.4484044             -12.2017
        19        2.0000           -0.4414393             -12.0122
        20        2.0000           -0.4352508             -11.8438
        21        2.0000           -0.4262496             -11.5988
        22        2.0000           -0.4234428             -11.5225
        23        2.0000           -0.4179447             -11.3729
        24        2.0000           -0.4157793             -11.3139
        25        2.0000           -0.4110018             -11.1839 (HOMO)
        26                          0.0676429               1.8407 (LUMO)
        27                          0.0810950               2.2067
        28                          0.1046390               2.8474
        29                          0.1186522               3.2287
        30                          0.1235648               3.3624
        31                          0.1272697               3.4632
        32                          0.1452979               3.9538
        33                          0.1488505               4.0504
        34                          0.1590955               4.3292
        35                          0.1723152               4.6889
        36                          0.1757712               4.7830
       ...                                ...                  ...
        50                          0.3198651               8.7040
      -------------------------------------------------------------
                  HL-Gap            0.4786447 Eh           13.0246 eV

     #   Z          covCN         q      C6AA      α(0)
     1   6 C        3.752    -0.102    22.501     6.764
     2   6 C        3.801    -0.053    21.519     6.605
     3   6 C        3.802    -0.059    21.628     6.621
     4   6 C        3.802    -0.058    21.617     6.619
     5   6 C        3.801    -0.058    21.609     6.619
     6   6 C        3.802    -0.059    21.627     6.621
     7   6 C        3.800    -0.052    21.517     6.604
     8   6 C        3.752    -0.102    22.501     6.765
     9   1 H        0.925     0.033     2.547     2.496
    10   1 H        0.925     0.032     2.559     2.502
    11   1 H        0.925     0.033     2.548     2.496
    12   1 H        0.924     0.027     2.628     2.535
    13   1 H        0.924     0.027     2.625     2.534
    14   1 H        0.924     0.033     2.546     2.495
    15   1 H        0.924     0.029     2.599     2.521
    16   1 H        0.924     0.026     2.637     2.540
    17   1 H        0.924     0.030     2.580     2.512
    18   1 H        0.924     0.028     2.612     2.527
    19   1 H        0.924     0.028     2.618     2.530
    20   1 H        0.924     0.032     2.561     2.502
    21   1 H        0.924     0.028     2.616     2.529
    22   1 H        0.924     0.028     2.618     2.530
    23   1 H        0.924     0.032     2.564     2.504
    24   1 H        0.925     0.032     2.565     2.504
    25   1 H        0.925     0.032     2.563     2.504
    26   1 H        0.925     0.032     2.558     2.501

Wiberg/Mayer (AO) data.
largest (>0.10) Wiberg bond orders for each atom

     #   Z sym  total        # sym  WBO       # sym  WBO       # sym  WBO
 ---------------------------------------------------------------------------
     1   6 C    3.997 --     2 C    1.019     9 H    0.988    11 H    0.988
                            10 H    0.988
     2   6 C    3.998 --     1 C    1.019     3 C    1.008    13 H    0.979
                            12 H    0.978
     3   6 C    3.998 --     4 C    1.008     2 C    1.008    15 H    0.977
                            14 H    0.975
     4   6 C    3.998 --     3 C    1.008     5 C    1.007    16 H    0.977
                            17 H    0.976
     5   6 C    3.997 --     6 C    1.007     4 C    1.007    18 H    0.977
                            19 H    0.977
     6   6 C    3.997 --     7 C    1.009     5 C    1.007    21 H    0.977
                            20 H    0.975
     7   6 C    3.998 --     8 C    1.019     6 C    1.009    22 H    0.978
                            23 H    0.977
     8   6 C    3.997 --     7 C    1.019    26 H    0.988    25 H    0.988
                            24 H    0.988
     9   1 H    0.999 --     1 C    0.988
    10   1 H    0.999 --     1 C    0.988
    11   1 H    0.999 --     1 C    0.988
    12   1 H    0.999 --     2 C    0.978
    13   1 H    0.999 --     2 C    0.979
    14   1 H    0.999 --     3 C    0.975
    15   1 H    0.999 --     3 C    0.977
    16   1 H    0.999 --     4 C    0.977
    17   1 H    0.999 --     4 C    0.976
    18   1 H    0.999 --     5 C    0.977
    19   1 H    0.999 --     5 C    0.977
    20   1 H    0.999 --     6 C    0.975
    21   1 H    0.999 --     6 C    0.977
    22   1 H    0.999 --     7 C    0.978
    23   1 H    0.999 --     7 C    0.977
    24   1 H    0.999 --     8 C    0.988
    25   1 H    0.999 --     8 C    0.988
    26   1 H    0.999 --     8 C    0.988
 ---------------------------------------------------------------------------

molecular dipole:
                 x           y           z       tot (Debye)
 q only:       -0.002      -0.004      -0.015
   full:       -0.001      -0.004      -0.011       0.030

 projected vibrational frequencies (cm⁻¹)
eigval :       -0.00    -0.00     0.00     0.00     0.00     0.00
eigval :       33.75    62.47    69.31   103.56   151.64   202.44
eigval :      227.75   234.13   265.65   295.36   399.80   417.41
eigval :      498.92   758.18   780.23   808.98   857.40   890.59
eigval :      920.91   944.62   956.12   990.23  1048.90  1069.31
eigval :     1084.52  1095.57  1113.46  1147.89  1154.90  1161.06
eigval :     1217.14  1230.39  1258.69  1278.11  1281.94  1286.68
eigval :     1292.01  1311.08  1350.29  1363.70  1374.52  1378.34
eigval :     1416.73  1416.95  1489.76  1493.16  1497.71  1500.60
eigval :     1502.34  1504.54  1505.46  1506.00  1508.17  1508.91
eigval :     2954.10  2954.29  2956.40  2958.52  2967.50  2970.32
eigval :     2974.68  2976.45  2984.91  2987.55  2991.70  2995.35
eigval :     3027.93  3028.92  3030.41  3031.30  3036.23  3037.20

   temp. (K)  partition function   enthalpy   heat capacity  entropy
                                   cal/mol     cal/K/mol   cal/K/mol   J/K/mol
 298.15  VIB  0.523E+04             5074.196     31.163     32.117
         ROT  0.666E+06              888.752      2.981     29.628
         INT  0.348E+10             5962.949     34.143     61.745
         TR   0.118E+28             1481.254      4.968     40.096
         TOT                        7444.2024    39.1116   101.8411   426.1032

       T/K    H(0)-H(T)+PV         H(T)/Eh          T*S/Eh         G(T)/Eh
   ------------------------------------------------------------------------
    298.15    0.118631E-01    0.255814E+00    0.483880E-01    0.207426E+00
   ------------------------------------------------------------------------

         :::::::::::::::::::::::::::::::::::::::::::::::::::::
         ::                  THERMODYNAMIC                  ::
         :::::::::::::::::::::::::::::::::::::::::::::::::::::
         :: total free energy         -26.113458051737 Eh   ::
         ::.................................................::
         :: total energy              -26.320884059257 Eh   ::
         :: zero point energy           0.243950912870 Eh   ::
         :: G(RRHO) w/o ZPVE           -0.036524905350 Eh   ::
         :: G(RRHO) contrib.            0.207426007520 Eh   ::
         :::::::::::::::::::::::::::::::::::::::::::::::::::::

           -------------------------------------------------
          | TOTAL ENERGY              -26.320884059257 Eh   |
          | TOTAL ENTHALPY            -26.065070054688 Eh   |
          | TOTAL FREE ENERGY         -26.113458051737 Eh   |
          | GRADIENT NORM               0.000496546538 Eh/α |
          | HOMO-LUMO GAP              13.024584698927 eV   |
           -------------------------------------------------

 * finished run on 2024/04/20 at 10:58:49.061
