   * xtb version 6.6.1 (8d0f1dd) compiled by 'stahn@M-Bot' on 2023-08-01
          program call               : xtb folded.xyz --gfn 2 --ohess -P 4

   ID    Z sym.   atoms
    1    6 C      1-13
    2    1 H      14-41

          :  Hamiltonian                  GFN2-xTB          :
 * total energy  :   -42.1374603 Eh     change       -0.2760459E-10 Eh
 * total energy  :   -42.1399205 Eh     change       -0.2460227E-02 Eh
 * total energy  :   -42.1403029 Eh     change       -0.3823662E-03 Eh
 * total energy  :   -42.1403311 Eh     change       -0.2815681E-04 Eh
 * total energy  :   -42.1403781 Eh     change       -0.4703543E-04 Eh
 * total energy  :   -42.1403967 Eh     change       -0.1859998E-04 Eh
 * total energy  :   -42.1404284 Eh     change       -0.3166686E-04 Eh
 * total energy  :   -42.1404372 Eh     change       -0.8812471E-05 Eh
 * total energy  :   -42.1404491 Eh     change       -0.1192958E-04 Eh
 * total energy  :   -42.1404526 Eh     change       -0.3474058E-05 Eh
   *** GEOMETRY OPTIMIZATION CONVERGED AFTER 10 ITERATIONS ***

 final structure:
================
41
 xtb: 6.6.1 (8d0f1dd)
C            3.52305383518445       -2.68214465950124       -1.09491605613649
C            3.73798927818879       -1.17952442205062       -0.95859208820154
C            2.48182431128272       -0.46933689634474       -0.45968389958725
C            2.69752288627350        1.03506149896832       -0.30249487145601
C            1.42215387413946        1.78537516780664        0.08498572256505
C            0.97629732854118        1.50350464275625        1.51823308491980
C           -0.27767078497333        2.27854168647986        1.92949780143201
C           -1.50783782559259        2.02009171519001        1.05608991074885
C           -1.89636289514182        0.54611017317206        0.96785494849029
C           -3.12454334198875        0.34294415238832        0.08424149889608
C           -3.56495479132066       -1.11840471461253       -0.02244763185549
C           -2.51138497755818       -2.07064239090807       -0.59302176046374
C           -2.04245177291142       -1.68702992081975       -1.99161221822848
H            4.42771261469010       -3.16847562289417       -1.45269202426055
H            2.72008335689294       -2.89051096916953       -1.79896503915623
H            3.25628935529415       -3.11834416401378       -0.13450136593631
H            4.55842103856157       -0.99221056816975       -0.26190774772594
H            4.02679035838608       -0.76542148192759       -1.92752003110976
H            2.18964775361025       -0.90358527247861        0.49811648786463
H            1.66726988513537       -0.64442228266665       -1.16720147273084
H            3.06463479991350        1.43463023305366       -1.25145700114577
H            3.46897759572135        1.21469009295520        0.45005330184270
H            0.63086705761575        1.50435713304174       -0.61144920059016
H            1.59340116316836        2.85935274582300       -0.02333287752893
H            1.78698126492990        1.77853395753060        2.19815039975518
H            0.79535251850463        0.43635366889315        1.64629945280559
H           -0.05763895979446        3.34895773922109        1.90421926185750
H           -0.51769745979391        2.01696580999665        2.96333582428675
H           -2.34682737421715        2.58593410216344        1.46972673404817
H           -1.32770015475233        2.40371617342836        0.04986870100705
H           -2.09828339432082        0.16034768674380        1.97002209851505
H           -1.06302098343261       -0.01783638393548        0.55131366876644
H           -3.95690780296495        0.92273278844615        0.49199975648845
H           -2.91746356574594        0.73523256735114       -0.91327230512444
H           -4.45495905636168       -1.16289738924435       -0.65557695438315
H           -3.85006337696302       -1.47508646146155        0.97064473606251
H           -2.94604153947199       -3.07286904740402       -0.62856790432310
H           -1.65203158763055       -2.11596361351429        0.07814803528733
H           -2.89145937221580       -1.58730433120857       -2.66477035792979
H           -1.50165931715027       -0.74429341702358       -1.97782759975748
H           -1.37794994173177       -2.45153272606054       -2.38899701800797
           -------------------------------------------------
          |                Final Singlepoint                |
           -------------------------------------------------

          :  Hamiltonian                  GFN2-xTB          :
         :: gradient norm              0.000343918106 Eh/a0 ::
         :: HOMO-LUMO gap             12.787746401870 eV    ::
         :: SCC energy               -42.771561158089 Eh    ::
         :: -> dispersion             -0.029156115084 Eh    ::
         :: repulsion energy           0.630562103096 Eh    ::

    * Orbital Energies and Occupations

         #    Occupation            Energy/Eh            Energy/eV
      -------------------------------------------------------------
         1        2.0000           -0.6232802             -16.9603
       ...           ...                  ...                  ...
        28        2.0000           -0.4511672             -12.2769
        29        2.0000           -0.4433872             -12.0652
        30        2.0000           -0.4395936             -11.9620
        31        2.0000           -0.4337142             -11.8020
        32        2.0000           -0.4306371             -11.7182
        33        2.0000           -0.4282364             -11.6529
        34        2.0000           -0.4229405             -11.5088
        35        2.0000           -0.4213131             -11.4645
        36        2.0000           -0.4182416             -11.3809
        37        2.0000           -0.4171802             -11.3520
        38        2.0000           -0.4112834             -11.1916
        39        2.0000           -0.4101220             -11.1600
        40        2.0000           -0.4080677             -11.1041 (HOMO)
        41                          0.0618733               1.6837 (LUMO)
        42                          0.0665963               1.8122
        43                          0.0853680               2.3230
        44                          0.0952488               2.5919
        45                          0.1029575               2.8016
        46                          0.1095348               2.9806
        47                          0.1147580               3.1227
        48                          0.1203713               3.2755
        49                          0.1260716               3.4306
        50                          0.1313282               3.5736
        51                          0.1338522               3.6423
       ...                                ...                  ...
        80                          0.3302386               8.9862
      -------------------------------------------------------------
                  HL-Gap            0.4699410 Eh           12.7877 eV

     #   Z          covCN         q      C6AA      α(0)
     1   6 C        3.752    -0.101    22.499     6.764
     2   6 C        3.801    -0.053    21.525     6.606
     3   6 C        3.803    -0.058    21.613     6.619
     4   6 C        3.802    -0.058    21.623     6.620
     5   6 C        3.801    -0.058    21.610     6.619
     6   6 C        3.801    -0.058    21.613     6.619
     7   6 C        3.801    -0.057    21.607     6.618
     8   6 C        3.802    -0.057    21.603     6.617
     9   6 C        3.802    -0.059    21.637     6.623
    10   6 C        3.802    -0.057    21.601     6.617
    11   6 C        3.801    -0.057    21.603     6.617
    12   6 C        3.799    -0.052    21.505     6.603
    13   6 C        3.751    -0.099    22.458     6.758
    14   1 H        0.925     0.032     2.561     2.503
    15   1 H        0.925     0.033     2.543     2.494
    16   1 H        0.925     0.033     2.548     2.496
    17   1 H        0.924     0.028     2.622     2.532
    18   1 H        0.924     0.027     2.625     2.534
    19   1 H        0.924     0.030     2.581     2.512
    20   1 H        0.924     0.030     2.588     2.516
    21   1 H        0.924     0.027     2.631     2.537
    22   1 H        0.924     0.028     2.621     2.532
    23   1 H        0.924     0.034     2.526     2.486
    24   1 H        0.924     0.027     2.632     2.537
    25   1 H        0.924     0.026     2.637     2.540
    26   1 H        0.925     0.033     2.539     2.492
    27   1 H        0.924     0.027     2.633     2.538
    28   1 H        0.924     0.027     2.624     2.533
    29   1 H        0.924     0.025     2.656     2.549
    30   1 H        0.924     0.029     2.603     2.523
    31   1 H        0.924     0.027     2.634     2.538
    32   1 H        0.925     0.040     2.449     2.447
    33   1 H        0.924     0.025     2.665     2.553
    34   1 H        0.924     0.031     2.573     2.508
    35   1 H        0.924     0.028     2.617     2.530
    36   1 H        0.924     0.026     2.637     2.540
    37   1 H        0.924     0.026     2.649     2.545
    38   1 H        0.924     0.031     2.576     2.510
    39   1 H        0.925     0.032     2.561     2.503
    40   1 H        0.925     0.035     2.513     2.479
    41   1 H        0.925     0.029     2.601     2.522

Wiberg/Mayer (AO) data.
largest (>0.10) Wiberg bond orders for each atom

     #   Z sym  total        # sym  WBO       # sym  WBO       # sym  WBO
 ---------------------------------------------------------------------------
     1   6 C    3.997 --     2 C    1.019    15 H    0.988    16 H    0.988
                            14 H    0.988
     2   6 C    3.998 --     1 C    1.019     3 C    1.008    17 H    0.979
                            18 H    0.979
     3   6 C    3.998 --     4 C    1.008     2 C    1.008    20 H    0.977
                            19 H    0.975
     4   6 C    3.997 --     3 C    1.008     5 C    1.006    21 H    0.977
                            22 H    0.977
     5   6 C    3.997 --     6 C    1.009     4 C    1.006    24 H    0.978
                            23 H    0.974
     6   6 C    3.998 --     5 C    1.009     7 C    1.006    25 H    0.977
                            26 H    0.973
     7   6 C    3.997 --     6 C    1.006     8 C    1.006    28 H    0.978
                            27 H    0.978
     8   6 C    3.997 --     9 C    1.008     7 C    1.006    29 H    0.977
                            30 H    0.976
     9   6 C    3.997 --    10 C    1.008     8 C    1.008    31 H    0.978
                            32 H    0.971
    10   6 C    3.997 --     9 C    1.008    11 C    1.007    33 H    0.977
                            34 H    0.976
    11   6 C    3.997 --    12 C    1.007    10 C    1.007    36 H    0.978
                            35 H    0.978
    12   6 C    3.998 --    13 C    1.020    11 C    1.007    37 H    0.979
                            38 H    0.976
    13   6 C    3.997 --    12 C    1.020    39 H    0.988    41 H    0.988
                            40 H    0.986
    14   1 H    0.999 --     1 C    0.988
    15   1 H    0.999 --     1 C    0.988
    16   1 H    0.999 --     1 C    0.988
    17   1 H    0.999 --     2 C    0.979
    18   1 H    0.999 --     2 C    0.979
    19   1 H    0.999 --     3 C    0.975
    20   1 H    0.999 --     3 C    0.977
    21   1 H    0.999 --     4 C    0.977
    22   1 H    0.999 --     4 C    0.977
    23   1 H    0.999 --     5 C    0.974
    24   1 H    0.999 --     5 C    0.978
    25   1 H    0.999 --     6 C    0.977
    26   1 H    0.999 --     6 C    0.973
    27   1 H    0.999 --     7 C    0.978
    28   1 H    0.999 --     7 C    0.978
    29   1 H    0.999 --     8 C    0.977
    30   1 H    0.999 --     8 C    0.976
    31   1 H    0.999 --     9 C    0.978
    32   1 H    0.998 --     9 C    0.971
    33   1 H    0.999 --    10 C    0.977
    34   1 H    0.999 --    10 C    0.976
    35   1 H    0.999 --    11 C    0.978
    36   1 H    0.999 --    11 C    0.978
    37   1 H    0.999 --    12 C    0.979
    38   1 H    0.999 --    12 C    0.976
    39   1 H    0.999 --    13 C    0.988
    40   1 H    0.999 --    13 C    0.986
    41   1 H    0.999 --    13 C    0.988
 ---------------------------------------------------------------------------

molecular dipole:
                 x           y           z       tot (Debye)
 q only:        0.007      -0.026      -0.019
   full:        0.004      -0.019      -0.013       0.059

 projected vibrational frequencies (cm⁻¹)
eigval :       -0.00    -0.00    -0.00    -0.00    -0.00     0.00
eigval :        5.19    20.86    28.56    50.73    66.78    78.86
eigval :      112.20   113.95   134.55   174.75   202.14   206.67
eigval :      232.04   245.46   268.81   274.44   284.10   344.04
eigval :      380.41   404.16   459.59   491.00   537.33   753.03
eigval :      761.07   772.81   800.18   821.26   832.23   863.81
eigval :      892.00   906.17   923.09   937.52   954.39   982.73
eigval :     1006.31  1009.52  1038.61  1048.02  1065.35  1080.03
eigval :     1093.76  1106.28  1118.36  1120.52  1148.07  1149.96
eigval :     1152.13  1158.27  1169.99  1190.40  1222.56  1236.51
eigval :     1250.05  1262.87  1270.56  1277.76  1284.18  1287.25
eigval :     1288.94  1295.08  1297.15  1318.54  1347.80  1348.58
eigval :     1359.55  1359.94  1362.79  1375.76  1378.00  1379.88
eigval :     1414.80  1416.57  1487.14  1489.31  1489.86  1494.19
eigval :     1494.64  1496.35  1500.01  1500.78  1502.88  1505.45
eigval :     1505.91  1507.92  1508.04  1510.12  1518.92  2954.24
eigval :     2954.53  2956.18  2957.53  2957.73  2958.82  2960.69
eigval :     2963.44  2965.17  2970.51  2970.99  2975.25  2976.19
eigval :     2977.93  2980.65  2982.23  2987.53  2989.02  2991.04
eigval :     2995.52  3004.54  3015.13  3028.46  3028.77  3031.21
eigval :     3031.69  3037.16  3043.89

   temp. (K)  partition function   enthalpy   heat capacity  entropy
                                   cal/mol     cal/K/mol   cal/K/mol   J/K/mol
 298.15  VIB  0.160E+09             9108.622     52.481     59.838
         ROT  0.318E+07              888.752      2.981     32.735
         INT  0.509E+15             9997.374     55.462     92.572
         TR   0.242E+28             1481.254      4.968     41.523
         TOT                       11478.6281    60.4304   134.0950   561.0534

       T/K    H(0)-H(T)+PV         H(T)/Eh          T*S/Eh         G(T)/Eh
   ------------------------------------------------------------------------
    298.15    0.182924E-01    0.403679E+00    0.637129E-01    0.339966E+00
   ------------------------------------------------------------------------

         :::::::::::::::::::::::::::::::::::::::::::::::::::::
         ::                  THERMODYNAMIC                  ::
         :::::::::::::::::::::::::::::::::::::::::::::::::::::
         :: total free energy         -41.800486516434 Eh   ::
         ::.................................................::
         :: total energy              -42.140452574803 Eh   ::
         :: zero point energy           0.385386552300 Eh   ::
         :: G(RRHO) w/o ZPVE           -0.045420493932 Eh   ::
         :: G(RRHO) contrib.            0.339966058368 Eh   ::
         :::::::::::::::::::::::::::::::::::::::::::::::::::::

           -------------------------------------------------
          | TOTAL ENERGY              -42.140452574803 Eh   |
          | TOTAL ENTHALPY            -41.736773664268 Eh   |
          | TOTAL FREE ENERGY         -41.800486516434 Eh   |
          | GRADIENT NORM               0.000343923285 Eh/α |
          | HOMO-LUMO GAP              12.787746530105 eV   |
           -------------------------------------------------

 * finished run on 2024/04/23 at 12:10:34.739
