   * xtb version 6.6.1 (8d0f1dd) compiled by 'stahn@M-Bot' on 2023-08-01
          program call               : xtb unfolded.xyz --gfn 2 --ohess -P 4

   ID    Z sym.   atoms
    1    6 C      1-12
    2    1 H      13-38

          :  Hamiltonian                  GFN2-xTB          :
 * total energy  :   -38.9769021 Eh     change       -0.1348610E-10 Eh
 * total energy  :   -38.9789941 Eh     change       -0.2091942E-02 Eh
 * total energy  :   -38.9793408 Eh     change       -0.3467580E-03 Eh
 * total energy  :   -38.9793657 Eh     change       -0.2486177E-04 Eh
 * total energy  :   -38.9793826 Eh     change       -0.1688967E-04 Eh
 * total energy  :   -38.9793875 Eh     change       -0.4889346E-05 Eh
   *** GEOMETRY OPTIMIZATION CONVERGED AFTER 6 ITERATIONS ***

 final structure:
================
38
 xtb: 6.6.1 (8d0f1dd)
C            6.56610687473206        0.79223690550168        0.18793089236215
C            5.14076771885502        1.05540082875687       -0.28250336388404
C            4.17373108875471       -0.02465638765098        0.19627409675240
C            2.74476066733851        0.23758538501001       -0.27198632789258
C            1.77324521935246       -0.84043385653619        0.20225275644450
C            0.34527017219131       -0.56315655215006       -0.26173257375385
C           -0.63078898530701       -1.63219014230083        0.22422128600757
C           -2.05625836758151       -1.43313030705046       -0.29294811745154
C           -2.73475227620372       -0.18476707963278        0.26660123533446
C           -4.18421188853152       -0.06444161732294       -0.19809919428513
C           -4.85399648624867        1.19563045864870        0.34496939637562
C           -6.29997090995503        1.31982577471060       -0.11954922815626
H            7.23658482578112        1.57301718405256       -0.16361650669418
H            6.92228929200400       -0.16308384332996       -0.19154877587475
H            6.60977824213252        0.76546539841455        1.27462529982992
H            4.80885597988754        2.02679848699385        0.09133800752349
H            5.12088222335817        1.09789042050819       -1.37396760282799
H            4.19364845049479       -0.06825781677690        1.28789682133275
H            4.50418554540623       -0.99650686418190       -0.17814473816456
H            2.41557350926182        1.20934041922163        0.10418409729115
H            2.72580897207048        0.28440366570370       -1.36354451418770
H            2.09707338785196       -1.81222763486565       -0.17808213904925
H            1.79416642111582       -0.89074946565603        1.29356952837811
H            0.32222925664401       -0.52364394537576       -1.35343394709752
H            0.03852815471729        0.41472007235395        0.11281808230185
H           -0.27202543720769       -2.60957163738182       -0.10843938959100
H           -0.64182237132143       -1.64078307583963        1.31674615181766
H           -2.65209779010980       -2.30742291643819       -0.01861126608142
H           -2.03901946827444       -1.37647834797780       -1.38396773692187
H           -2.18946758298464        0.70546639350732       -0.05111663551199
H           -2.70805941793506       -0.21925364340593        1.35846617079739
H           -4.21234041222698       -0.04556681058335       -1.29030537424037
H           -4.74569092800712       -0.94237646928631        0.13054059783443
H           -4.29124307550113        2.07209602603124        0.01514829496894
H           -4.82415747512399        1.17640666488350        1.43689545644843
H           -6.88322266306170        0.46509803784955        0.21621723165529
H           -6.34922054678107        1.36128555592842       -1.20555518267460
H           -6.75433991958733        2.22376773566716        0.27951821088448
           -------------------------------------------------
          |                Final Singlepoint                |
           -------------------------------------------------

          :  Hamiltonian                  GFN2-xTB          :
         :: gradient norm              0.000475558241 Eh/a0 ::
         :: HOMO-LUMO gap             12.370885171962 eV    ::
         :: SCC energy               -39.563773089055 Eh    ::
         :: -> dispersion             -0.024100725375 Eh    ::
         :: repulsion energy           0.584579131196 Eh    ::

    * Orbital Energies and Occupations

         #    Occupation            Energy/Eh            Energy/eV
      -------------------------------------------------------------
         1        2.0000           -0.6231132             -16.9558
       ...           ...                  ...                  ...
        25        2.0000           -0.4523671             -12.3095
        26        2.0000           -0.4473017             -12.1717
        27        2.0000           -0.4441033             -12.0847
        28        2.0000           -0.4369915             -11.8911
        29        2.0000           -0.4320010             -11.7553
        30        2.0000           -0.4301062             -11.7038
        31        2.0000           -0.4284258             -11.6581
        32        2.0000           -0.4243903             -11.5482
        33        2.0000           -0.4208876             -11.4529
        34        2.0000           -0.4183091             -11.3828
        35        2.0000           -0.4170815             -11.3494
        36        2.0000           -0.4123092             -11.2195
        37        2.0000           -0.4109453             -11.1824 (HOMO)
        38                          0.0436763               1.1885 (LUMO)
        39                          0.0624454               1.6992
        40                          0.1059789               2.8838
        41                          0.1085030               2.9525
        42                          0.1135623               3.0902
        43                          0.1163075               3.1649
        44                          0.1203582               3.2751
        45                          0.1272328               3.4622
        46                          0.1357979               3.6952
        47                          0.1401731               3.8143
        48                          0.1479838               4.0268
       ...                                ...                  ...
        74                          0.3263566               8.8806
      -------------------------------------------------------------
                  HL-Gap            0.4546217 Eh           12.3709 eV

     #   Z          covCN         q      C6AA      α(0)
     1   6 C        3.752    -0.102    22.511     6.766
     2   6 C        3.801    -0.053    21.523     6.605
     3   6 C        3.803    -0.059    21.633     6.622
     4   6 C        3.803    -0.058    21.620     6.620
     5   6 C        3.803    -0.058    21.620     6.620
     6   6 C        3.802    -0.059    21.629     6.621
     7   6 C        3.802    -0.058    21.618     6.620
     8   6 C        3.802    -0.058    21.616     6.619
     9   6 C        3.802    -0.059    21.632     6.622
    10   6 C        3.803    -0.059    21.635     6.622
    11   6 C        3.801    -0.053    21.521     6.605
    12   6 C        3.752    -0.102    22.510     6.766
    13   1 H        0.925     0.033     2.550     2.497
    14   1 H        0.925     0.033     2.541     2.493
    15   1 H        0.925     0.033     2.541     2.493
    16   1 H        0.924     0.028     2.609     2.526
    17   1 H        0.924     0.028     2.609     2.526
    18   1 H        0.924     0.030     2.592     2.518
    19   1 H        0.924     0.030     2.592     2.518
    20   1 H        0.924     0.028     2.611     2.527
    21   1 H        0.924     0.028     2.609     2.526
    22   1 H        0.924     0.028     2.614     2.528
    23   1 H        0.924     0.029     2.608     2.525
    24   1 H        0.924     0.029     2.596     2.519
    25   1 H        0.924     0.031     2.568     2.506
    26   1 H        0.924     0.028     2.608     2.526
    27   1 H        0.924     0.029     2.595     2.519
    28   1 H        0.924     0.028     2.608     2.526
    29   1 H        0.924     0.029     2.595     2.519
    30   1 H        0.924     0.031     2.574     2.509
    31   1 H        0.924     0.029     2.602     2.522
    32   1 H        0.924     0.029     2.598     2.521
    33   1 H        0.924     0.029     2.604     2.524
    34   1 H        0.924     0.028     2.612     2.527
    35   1 H        0.924     0.028     2.610     2.526
    36   1 H        0.925     0.033     2.543     2.494
    37   1 H        0.925     0.033     2.543     2.494
    38   1 H        0.925     0.032     2.552     2.498

Wiberg/Mayer (AO) data.
largest (>0.10) Wiberg bond orders for each atom

     #   Z sym  total        # sym  WBO       # sym  WBO       # sym  WBO
 ---------------------------------------------------------------------------
     1   6 C    3.997 --     2 C    1.019    14 H    0.988    15 H    0.988
                            13 H    0.988
     2   6 C    3.998 --     1 C    1.019     3 C    1.008    17 H    0.979
                            16 H    0.979
     3   6 C    3.997 --     2 C    1.008     4 C    1.007    19 H    0.978
                            18 H    0.978
     4   6 C    3.997 --     3 C    1.007     5 C    1.007    21 H    0.978
                            20 H    0.977
     5   6 C    3.997 --     4 C    1.007     6 C    1.007    23 H    0.978
                            22 H    0.978
     6   6 C    3.997 --     7 C    1.008     5 C    1.007    24 H    0.977
                            25 H    0.975
     7   6 C    3.997 --     6 C    1.008     8 C    1.006    27 H    0.977
                            26 H    0.977
     8   6 C    3.997 --     9 C    1.008     7 C    1.006    29 H    0.977
                            28 H    0.977
     9   6 C    3.998 --     8 C    1.008    10 C    1.007    31 H    0.977
                            30 H    0.975
    10   6 C    3.997 --    11 C    1.008     9 C    1.007    32 H    0.978
                            33 H    0.978
    11   6 C    3.998 --    12 C    1.019    10 C    1.008    35 H    0.979
                            34 H    0.979
    12   6 C    3.997 --    11 C    1.019    36 H    0.988    37 H    0.988
                            38 H    0.988
    13   1 H    0.999 --     1 C    0.988
    14   1 H    0.999 --     1 C    0.988
    15   1 H    0.999 --     1 C    0.988
    16   1 H    0.999 --     2 C    0.979
    17   1 H    0.999 --     2 C    0.979
    18   1 H    0.999 --     3 C    0.978
    19   1 H    0.999 --     3 C    0.978
    20   1 H    0.999 --     4 C    0.977
    21   1 H    0.999 --     4 C    0.978
    22   1 H    0.999 --     5 C    0.978
    23   1 H    0.999 --     5 C    0.978
    24   1 H    0.999 --     6 C    0.977
    25   1 H    0.999 --     6 C    0.975
    26   1 H    0.999 --     7 C    0.977
    27   1 H    0.999 --     7 C    0.977
    28   1 H    0.999 --     8 C    0.977
    29   1 H    0.999 --     8 C    0.977
    30   1 H    0.999 --     9 C    0.975
    31   1 H    0.999 --     9 C    0.977
    32   1 H    0.999 --    10 C    0.978
    33   1 H    0.999 --    10 C    0.978
    34   1 H    0.999 --    11 C    0.979
    35   1 H    0.999 --    11 C    0.979
    36   1 H    0.999 --    12 C    0.988
    37   1 H    0.999 --    12 C    0.988
    38   1 H    0.999 --    12 C    0.988
 ---------------------------------------------------------------------------

molecular dipole:
                 x           y           z       tot (Debye)
 q only:        0.000       0.005       0.000
   full:        0.000       0.002       0.000       0.005

 projected vibrational frequencies (cm⁻¹)
eigval :       -0.00    -0.00    -0.00    -0.00     0.00     0.00
eigval :       25.49    31.09    35.96    61.41    78.25    84.79
eigval :      110.43   119.15   124.00   139.65   155.08   211.49
eigval :      228.11   233.08   234.31   304.85   348.78   372.91
eigval :      441.07   471.65   527.19   765.54   769.92   775.14
eigval :      789.94   804.86   851.17   873.36   927.10   938.83
eigval :      941.14   959.95   982.38  1011.22  1029.54  1051.36
eigval :     1076.42  1081.44  1095.14  1105.45  1107.89  1115.70
eigval :     1123.27  1132.47  1143.32  1176.00  1206.14  1216.16
eigval :     1236.71  1241.55  1257.76  1264.28  1274.21  1278.87
eigval :     1284.64  1284.94  1294.23  1294.95  1299.87  1324.21
eigval :     1330.71  1362.29  1367.45  1377.42  1378.92  1380.40
eigval :     1415.93  1415.97  1491.16  1491.57  1495.84  1496.30
eigval :     1497.88  1498.21  1500.22  1501.38  1502.52  1504.68
eigval :     1504.74  1504.96  1507.91  1507.95  2953.43  2955.23
eigval :     2956.48  2957.05  2957.96  2963.61  2965.55  2970.47
eigval :     2972.87  2973.27  2974.42  2974.58  2976.97  2977.54
eigval :     2979.35  2981.16  2984.14  2985.73  2990.81  2996.92
eigval :     3030.58  3030.61  3032.59  3032.81  3038.08  3038.28

   temp. (K)  partition function   enthalpy   heat capacity  entropy
                                   cal/mol     cal/K/mol   cal/K/mol   J/K/mol
 298.15  VIB  0.126E+08             8604.573     48.770     56.185
         ROT  0.317E+07              888.752      2.981     32.726
         INT  0.400E+14             9493.326     51.751     88.911
         TR   0.215E+28             1481.254      4.968     41.287
         TOT                       10974.5797    56.7194   130.1978   544.7475

       T/K    H(0)-H(T)+PV         H(T)/Eh          T*S/Eh         G(T)/Eh
   ------------------------------------------------------------------------
    298.15    0.174891E-01    0.373819E+00    0.618612E-01    0.311958E+00
   ------------------------------------------------------------------------

         :::::::::::::::::::::::::::::::::::::::::::::::::::::
         ::                  THERMODYNAMIC                  ::
         :::::::::::::::::::::::::::::::::::::::::::::::::::::
         :: total free energy         -38.667429669531 Eh   ::
         ::.................................................::
         :: total energy              -38.979387451506 Eh   ::
         :: zero point energy           0.356329841107 Eh   ::
         :: G(RRHO) w/o ZPVE           -0.044372059133 Eh   ::
         :: G(RRHO) contrib.            0.311957781974 Eh   ::
         :::::::::::::::::::::::::::::::::::::::::::::::::::::

           -------------------------------------------------
          | TOTAL ENERGY              -38.979387451506 Eh   |
          | TOTAL ENTHALPY            -38.605568504488 Eh   |
          | TOTAL FREE ENERGY         -38.667429669531 Eh   |
          | GRADIENT NORM               0.000475555635 Eh/α |
          | HOMO-LUMO GAP              12.370885116608 eV   |
           -------------------------------------------------

 * finished run on 2024/04/23 at 12:10:32.917
