   * xtb version 6.6.1 (8d0f1dd) compiled by 'stahn@M-Bot' on 2023-08-01
          program call               : xtb unfolded.xyz --gfn 2 --ohess -P 4

   ID    Z sym.   atoms
    1    6 C      1-10
    2    1 H      11-32

          :  Hamiltonian                  GFN2-xTB          :
 * total energy  :   -32.6484642 Eh     change       -0.1178080E-10 Eh
 * total energy  :   -32.6502069 Eh     change       -0.1742756E-02 Eh
 * total energy  :   -32.6504924 Eh     change       -0.2854475E-03 Eh
 * total energy  :   -32.6505140 Eh     change       -0.2156016E-04 Eh
 * total energy  :   -32.6505276 Eh     change       -0.1369539E-04 Eh
 * total energy  :   -32.6505320 Eh     change       -0.4351533E-05 Eh
   *** GEOMETRY OPTIMIZATION CONVERGED AFTER 6 ITERATIONS ***

 final structure:
================
32
 xtb: 6.6.1 (8d0f1dd)
C            5.55505616205219        0.70379948472970       -0.00199737784965
C            4.36827529013314       -0.24374661920966        0.12466702023817
C            3.03709998860882        0.48782864912285       -0.02757053968696
C            1.84408550078243       -0.45695699938373        0.09317960577920
C            0.51527544104043        0.27211066653333       -0.08762732512216
C           -0.68000726985913       -0.67163753944470        0.01872841779602
C           -2.00299284958085        0.05807678256529       -0.20104587604801
C           -3.19926346518189       -0.88534265946611       -0.09819058419199
C           -4.53119717280512       -0.21332092715300       -0.43393733624041
C           -4.94019689429570        0.85168038585660        0.57726916955017
H            6.49194206645483        0.16211206141335        0.10531372913916
H            5.55013506001031        1.19238982426126       -0.97403768986476
H            5.51266597328732        1.47268583124558        0.76646950018894
H            4.44100638875889       -1.02034433029579       -0.64025817366923
H            4.39921399070631       -0.73665021478831        1.09909176961109
H            2.96210067181593        1.26420033906787        0.73763336324724
H            3.00767777719601        0.98211596513499       -1.00168707843552
H            1.92902800425992       -1.24276053113736       -0.66138393189654
H            1.86200516416241       -0.93934491910683        1.07342046055877
H            0.50265823859940        0.75867472249911       -1.06599100212300
H            0.42640910122728        1.05467769130299        0.66973792019164
H           -0.68447839857202       -1.14068262163671        1.00555859144958
H           -0.57769027606474       -1.46759516271673       -0.72299118828932
H           -2.09402675610278        0.85356189678631        0.54025434720397
H           -1.99611821394452        0.52343114314216       -1.18980840281254
H           -3.24807723993328       -1.29894311974073        0.91192287060864
H           -3.04636037879523       -1.71954873089991       -0.78783641654719
H           -4.46574567327746        0.23681283629643       -1.42724895793819
H           -5.30850751083488       -0.98050368606705       -0.47025620016897
H           -5.92223530869773        1.24878533473557        0.32992953979795
H           -4.98373898251341        0.42861712147802        1.57864645661032
H           -4.23371142863690        1.67743732487520        0.58216731891356
           -------------------------------------------------
          |                Final Singlepoint                |
           -------------------------------------------------

          :  Hamiltonian                  GFN2-xTB          :
         :: gradient norm              0.000397575091 Eh/a0 ::
         :: HOMO-LUMO gap             12.324940704765 eV    ::
         :: SCC energy               -33.141543479219 Eh    ::
         :: -> dispersion             -0.019585172565 Eh    ::
         :: repulsion energy           0.491158841310 Eh    ::

    * Orbital Energies and Occupations

         #    Occupation            Energy/Eh            Energy/eV
      -------------------------------------------------------------
         1        2.0000           -0.6226438             -16.9430
       ...           ...                  ...                  ...
        19        2.0000           -0.4654550             -12.6657
        20        2.0000           -0.4592326             -12.4964
        21        2.0000           -0.4554315             -12.3929
        22        2.0000           -0.4473928             -12.1742
        23        2.0000           -0.4387419             -11.9388
        24        2.0000           -0.4357488             -11.8573
        25        2.0000           -0.4321339             -11.7590
        26        2.0000           -0.4282254             -11.6526
        27        2.0000           -0.4231775             -11.5152
        28        2.0000           -0.4220480             -11.4845
        29        2.0000           -0.4170815             -11.3494
        30        2.0000           -0.4156965             -11.3117
        31        2.0000           -0.4106384             -11.1740 (HOMO)
        32                          0.0422948               1.1509 (LUMO)
        33                          0.0973758               2.6497
        34                          0.1036547               2.8206
        35                          0.1105025               3.0069
        36                          0.1136889               3.0936
        37                          0.1200984               3.2680
        38                          0.1305977               3.5537
        39                          0.1402033               3.8151
        40                          0.1413863               3.8473
        41                          0.1499662               4.0808
        42                          0.1556997               4.2368
       ...                                ...                  ...
        62                          0.3254040               8.8547
      -------------------------------------------------------------
                  HL-Gap            0.4529332 Eh           12.3249 eV

     #   Z          covCN         q      C6AA      α(0)
     1   6 C        3.752    -0.102    22.510     6.766
     2   6 C        3.801    -0.053    21.523     6.605
     3   6 C        3.803    -0.059    21.632     6.622
     4   6 C        3.803    -0.058    21.621     6.620
     5   6 C        3.803    -0.058    21.614     6.619
     6   6 C        3.803    -0.058    21.620     6.620
     7   6 C        3.802    -0.058    21.623     6.620
     8   6 C        3.802    -0.058    21.617     6.619
     9   6 C        3.800    -0.053    21.520     6.605
    10   6 C        3.751    -0.102    22.508     6.766
    11   1 H        0.925     0.033     2.550     2.497
    12   1 H        0.925     0.033     2.541     2.493
    13   1 H        0.925     0.033     2.542     2.493
    14   1 H        0.924     0.028     2.608     2.526
    15   1 H        0.924     0.028     2.609     2.526
    16   1 H        0.924     0.030     2.593     2.518
    17   1 H        0.924     0.030     2.591     2.517
    18   1 H        0.924     0.028     2.609     2.526
    19   1 H        0.924     0.028     2.610     2.527
    20   1 H        0.924     0.029     2.603     2.523
    21   1 H        0.924     0.029     2.607     2.525
    22   1 H        0.924     0.028     2.611     2.527
    23   1 H        0.924     0.028     2.617     2.530
    24   1 H        0.924     0.032     2.556     2.500
    25   1 H        0.924     0.029     2.603     2.523
    26   1 H        0.924     0.030     2.587     2.515
    27   1 H        0.924     0.027     2.628     2.535
    28   1 H        0.924     0.029     2.600     2.522
    29   1 H        0.924     0.028     2.620     2.531
    30   1 H        0.925     0.031     2.575     2.509
    31   1 H        0.925     0.033     2.537     2.491
    32   1 H        0.925     0.035     2.520     2.482

Wiberg/Mayer (AO) data.
largest (>0.10) Wiberg bond orders for each atom

     #   Z sym  total        # sym  WBO       # sym  WBO       # sym  WBO
 ---------------------------------------------------------------------------
     1   6 C    3.997 --     2 C    1.019    13 H    0.988    12 H    0.988
                            11 H    0.988
     2   6 C    3.998 --     1 C    1.019     3 C    1.008    15 H    0.979
                            14 H    0.979
     3   6 C    3.997 --     2 C    1.008     4 C    1.007    16 H    0.978
                            17 H    0.977
     4   6 C    3.997 --     3 C    1.007     5 C    1.007    19 H    0.978
                            18 H    0.977
     5   6 C    3.997 --     4 C    1.007     6 C    1.007    21 H    0.978
                            20 H    0.977
     6   6 C    3.997 --     5 C    1.007     7 C    1.007    22 H    0.978
                            23 H    0.977
     7   6 C    3.997 --     8 C    1.008     6 C    1.007    25 H    0.977
                            24 H    0.976
     8   6 C    3.997 --     7 C    1.008     9 C    1.007    26 H    0.978
                            27 H    0.977
     9   6 C    3.998 --    10 C    1.020     8 C    1.007    29 H    0.979
                            28 H    0.978
    10   6 C    3.997 --     9 C    1.020    31 H    0.988    30 H    0.988
                            32 H    0.986
    11   1 H    0.999 --     1 C    0.988
    12   1 H    0.999 --     1 C    0.988
    13   1 H    0.999 --     1 C    0.988
    14   1 H    0.999 --     2 C    0.979
    15   1 H    0.999 --     2 C    0.979
    16   1 H    0.999 --     3 C    0.978
    17   1 H    0.999 --     3 C    0.977
    18   1 H    0.999 --     4 C    0.977
    19   1 H    0.999 --     4 C    0.978
    20   1 H    0.999 --     5 C    0.977
    21   1 H    0.999 --     5 C    0.978
    22   1 H    0.999 --     6 C    0.978
    23   1 H    0.999 --     6 C    0.977
    24   1 H    0.999 --     7 C    0.976
    25   1 H    0.999 --     7 C    0.977
    26   1 H    0.999 --     8 C    0.978
    27   1 H    0.999 --     8 C    0.977
    28   1 H    0.999 --     9 C    0.978
    29   1 H    0.999 --     9 C    0.979
    30   1 H    0.999 --    10 C    0.988
    31   1 H    0.999 --    10 C    0.988
    32   1 H    0.999 --    10 C    0.986
 ---------------------------------------------------------------------------

molecular dipole:
                 x           y           z       tot (Debye)
 q only:       -0.004       0.018       0.006
   full:       -0.001       0.013       0.005       0.037

 projected vibrational frequencies (cm⁻¹)
eigval :       -0.00    -0.00    -0.00    -0.00     0.00     0.00
eigval :       31.33    37.97    57.74    81.74    85.47   117.63
eigval :      136.51   148.49   156.24   216.75   233.18   251.59
eigval :      299.18   342.76   431.24   459.02   504.83   768.26
eigval :      770.77   784.37   806.53   834.08   887.06   928.48
eigval :      941.16   947.76   998.52  1009.11  1034.06  1055.80
eigval :     1063.91  1098.31  1106.70  1108.90  1121.19  1135.23
eigval :     1143.53  1184.40  1205.42  1229.42  1234.05  1258.10
eigval :     1265.99  1274.26  1281.04  1286.15  1293.84  1298.50
eigval :     1315.10  1347.13  1353.99  1370.69  1378.60  1379.59
eigval :     1415.45  1415.92  1491.27  1493.41  1496.00  1496.74
eigval :     1498.01  1499.89  1501.75  1503.99  1504.64  1507.66
eigval :     1508.13  1510.90  2953.07  2955.09  2956.91  2959.96
eigval :     2962.32  2965.96  2971.31  2972.60  2973.69  2975.76
eigval :     2977.80  2979.09  2979.93  2983.39  2987.55  2993.55
eigval :     3030.26  3031.14  3032.82  3034.08  3038.24  3046.88

   temp. (K)  partition function   enthalpy   heat capacity  entropy
                                   cal/mol     cal/K/mol   cal/K/mol   J/K/mol
 298.15  VIB  0.270E+06             6895.798     40.102     44.713
         ROT  0.132E+07              888.752      2.981     30.982
         INT  0.356E+12             7784.550     43.083     75.695
         TR   0.164E+28             1481.254      4.968     40.751
         TOT                        9265.8041    48.0509   116.4458   487.2094

       T/K    H(0)-H(T)+PV         H(T)/Eh          T*S/Eh         G(T)/Eh
   ------------------------------------------------------------------------
    298.15    0.147660E-01    0.314793E+00    0.553272E-01    0.259466E+00
   ------------------------------------------------------------------------

         :::::::::::::::::::::::::::::::::::::::::::::::::::::
         ::                  THERMODYNAMIC                  ::
         :::::::::::::::::::::::::::::::::::::::::::::::::::::
         :: total free energy         -32.391065813894 Eh   ::
         ::.................................................::
         :: total energy              -32.650531999113 Eh   ::
         :: zero point energy           0.300027362236 Eh   ::
         :: G(RRHO) w/o ZPVE           -0.040561177017 Eh   ::
         :: G(RRHO) contrib.            0.259466185219 Eh   ::
         :::::::::::::::::::::::::::::::::::::::::::::::::::::

           -------------------------------------------------
          | TOTAL ENERGY              -32.650531999113 Eh   |
          | TOTAL ENTHALPY            -32.335738638182 Eh   |
          | TOTAL FREE ENERGY         -32.391065813894 Eh   |
          | GRADIENT NORM               0.000397571961 Eh/α |
          | HOMO-LUMO GAP              12.324940722359 eV   |
           -------------------------------------------------

 * finished run on 2024/04/23 at 12:10:25.749
