   * xtb version 6.6.1 (8d0f1dd) compiled by 'stahn@M-Bot' on 2023-08-01
          program call               : xtb unfolded.xyz --gfn 2 --ohess -P 4

   ID    Z sym.   atoms
    1    6 C      1-4
    2    1 H      5-14

          :  Hamiltonian                  GFN2-xTB          :
 * total energy  :   -13.6643588 Eh     change       -0.7039702E-11 Eh
 * total energy  :   -13.6650506 Eh     change       -0.6917662E-03 Eh
 * total energy  :   -13.6651242 Eh     change       -0.7358482E-04 Eh
 * total energy  :   -13.6651275 Eh     change       -0.3324828E-05 Eh
   *** GEOMETRY OPTIMIZATION CONVERGED AFTER 4 ITERATIONS ***

 final structure:
================
14
 xtb: 6.6.1 (8d0f1dd)
C           -1.93744489528079        0.13507264624846        0.00042946835041
C           -0.56109959401183       -0.51762873888261       -0.00048000932287
C            0.56112275976365        0.51762072380377       -0.00059309775423
C            1.93754714458449       -0.13490883754801        0.00054701359500
H           -2.06454307544338        0.75925730528253       -0.88165978749337
H           -2.72032721944212       -0.61995615106200        0.00200117207924
H           -2.06251860278373        0.76080115495537        0.88172224861596
H           -0.46126716629841       -1.15542547732138        0.88101832338182
H           -0.46211735566004       -1.15483397349911       -0.88249227068283
H            0.46122070680427        1.15562116428131        0.88074934629081
H            0.46210192310095        1.15460791875489       -0.88276077565878
H            2.06335459738506       -0.75904351269912        0.88286294280917
H            2.06413783222864       -0.76064176215367       -0.88052121202237
H            2.72029194505325        0.62026353983956        0.00022663781205
           -------------------------------------------------
          |                Final Singlepoint                |
           -------------------------------------------------

          :  Hamiltonian                  GFN2-xTB          :
         :: gradient norm              0.000436091778 Eh/a0 ::
         :: HOMO-LUMO gap             13.811085304665 eV    ::
         :: SCC energy               -13.876094641209 Eh    ::
         :: -> dispersion             -0.006049490544 Eh    ::
         :: repulsion energy           0.210963294448 Eh    ::

    * Orbital Energies and Occupations

         #    Occupation            Energy/Eh            Energy/eV
      -------------------------------------------------------------
         1        2.0000           -0.6180080             -16.8169
         2        2.0000           -0.5990133             -16.3000
         3        2.0000           -0.5679297             -15.4542
         4        2.0000           -0.5524011             -15.0316
         5        2.0000           -0.5138781             -13.9833
         6        2.0000           -0.4918714             -13.3845
         7        2.0000           -0.4879078             -13.2766
         8        2.0000           -0.4790045             -13.0344
         9        2.0000           -0.4546558             -12.3718
        10        2.0000           -0.4394977             -11.9593
        11        2.0000           -0.4367633             -11.8849
        12        2.0000           -0.4257621             -11.5856
        13        2.0000           -0.4195551             -11.4167 (HOMO)
        14                          0.0879929               2.3944 (LUMO)
        15                          0.1268098               3.4507
        16                          0.1277602               3.4765
        17                          0.1527238               4.1558
        18                          0.1628973               4.4327
        19                          0.1838263               5.0022
        20                          0.1937936               5.2734
        21                          0.1970585               5.3622
        22                          0.2247326               6.1153
        23                          0.2548781               6.9356
        24                          0.2646375               7.2012
       ...                                ...                  ...
        26                          0.3115150               8.4768
      -------------------------------------------------------------
                  HL-Gap            0.5075480 Eh           13.8111 eV

     #   Z          covCN         q      C6AA      α(0)
     1   6 C        3.752    -0.102    22.510     6.766
     2   6 C        3.801    -0.053    21.534     6.607
     3   6 C        3.801    -0.053    21.534     6.607
     4   6 C        3.752    -0.102    22.510     6.766
     5   1 H        0.925     0.033     2.550     2.497
     6   1 H        0.925     0.032     2.554     2.499
     7   1 H        0.925     0.033     2.550     2.497
     8   1 H        0.924     0.029     2.600     2.522
     9   1 H        0.924     0.029     2.600     2.522
    10   1 H        0.924     0.029     2.600     2.522
    11   1 H        0.924     0.029     2.600     2.522
    12   1 H        0.925     0.033     2.550     2.497
    13   1 H        0.925     0.033     2.550     2.497
    14   1 H        0.925     0.032     2.554     2.499

Wiberg/Mayer (AO) data.
largest (>0.10) Wiberg bond orders for each atom

     #   Z sym  total        # sym  WBO       # sym  WBO       # sym  WBO
 ---------------------------------------------------------------------------
     1   6 C    3.997 --     2 C    1.019     5 H    0.988     7 H    0.988
                             6 H    0.988
     2   6 C    3.998 --     1 C    1.019     3 C    1.009     9 H    0.979
                             8 H    0.979
     3   6 C    3.998 --     4 C    1.019     2 C    1.009    11 H    0.979
                            10 H    0.979
     4   6 C    3.997 --     3 C    1.019    13 H    0.988    12 H    0.988
                            14 H    0.988
     5   1 H    0.999 --     1 C    0.988
     6   1 H    0.999 --     1 C    0.988
     7   1 H    0.999 --     1 C    0.988
     8   1 H    0.999 --     2 C    0.979
     9   1 H    0.999 --     2 C    0.979
    10   1 H    0.999 --     3 C    0.979
    11   1 H    0.999 --     3 C    0.979
    12   1 H    0.999 --     4 C    0.988
    13   1 H    0.999 --     4 C    0.988
    14   1 H    0.999 --     4 C    0.988
 ---------------------------------------------------------------------------

molecular dipole:
                 x           y           z       tot (Debye)
 q only:        0.000       0.000       0.000
   full:        0.000       0.000       0.000       0.000

 projected vibrational frequencies (cm⁻¹)
eigval :       -0.00    -0.00     0.00     0.00     0.00     0.00
eigval :      108.41   214.08   246.26   265.30   427.07   776.57
eigval :      847.55   893.61   967.80  1002.58  1075.58  1110.94
eigval :     1164.52  1202.17  1257.86  1285.55  1304.33  1372.46
eigval :     1415.11  1418.55  1497.07  1499.82  1505.19  1505.39
eigval :     1507.88  1508.73  2958.28  2971.70  2976.21  2982.41
eigval :     3027.72  3029.73  3030.16  3032.75  3036.88  3037.59

   temp. (K)  partition function   enthalpy   heat capacity  entropy
                                   cal/mol     cal/K/mol   cal/K/mol   J/K/mol
 298.15  VIB   9.64                 1856.233     13.434     10.707
         ROT  0.251E+05              888.752      2.981     23.115
         INT  0.242E+06             2744.985     16.415     33.822
         TR   0.429E+27             1481.254      4.968     38.083
         TOT                        4226.2388    21.3827    71.9049   300.8499

       T/K    H(0)-H(T)+PV         H(T)/Eh          T*S/Eh         G(T)/Eh
   ------------------------------------------------------------------------
    298.15    0.673494E-02    0.137647E+00    0.341643E-01    0.103483E+00
   ------------------------------------------------------------------------

         :::::::::::::::::::::::::::::::::::::::::::::::::::::
         ::                  THERMODYNAMIC                  ::
         :::::::::::::::::::::::::::::::::::::::::::::::::::::
         :: total free energy         -13.561644632104 Eh   ::
         ::.................................................::
         :: total energy              -13.665127476054 Eh   ::
         :: zero point energy           0.130912218427 Eh   ::
         :: G(RRHO) w/o ZPVE           -0.027429374477 Eh   ::
         :: G(RRHO) contrib.            0.103482843950 Eh   ::
         :::::::::::::::::::::::::::::::::::::::::::::::::::::

           -------------------------------------------------
          | TOTAL ENERGY              -13.665127476054 Eh   |
          | TOTAL ENTHALPY            -13.527480317430 Eh   |
          | TOTAL FREE ENERGY         -13.561644632104 Eh   |
          | GRADIENT NORM               0.000436093329 Eh/α |
          | HOMO-LUMO GAP              13.811085289069 eV   |
           -------------------------------------------------

 * finished run on 2024/04/23 at 12:09:57.931
