   * xtb version 6.6.1 (8d0f1dd) compiled by 'stahn@M-Bot' on 2023-08-01
          program call               : xtb folded.xyz --gfn 2 --ohess -P 4

   ID    Z sym.   atoms
    1    6 C      1-14
    2    1 H      15-44

          :  Hamiltonian                  GFN2-xTB          :
 * total energy  :   -45.3023521 Eh     change       -0.3273470E-10 Eh
 * total energy  :   -45.3050133 Eh     change       -0.2661235E-02 Eh
 * total energy  :   -45.3054285 Eh     change       -0.4152128E-03 Eh
 * total energy  :   -45.3054566 Eh     change       -0.2809405E-04 Eh
 * total energy  :   -45.3054980 Eh     change       -0.4140138E-04 Eh
 * total energy  :   -45.3055165 Eh     change       -0.1851635E-04 Eh
 * total energy  :   -45.3055573 Eh     change       -0.4080196E-04 Eh
 * total energy  :   -45.3055705 Eh     change       -0.1312631E-04 Eh
 * total energy  :   -45.3055910 Eh     change       -0.2055091E-04 Eh
 * total energy  :   -45.3056038 Eh     change       -0.1276605E-04 Eh
 * total energy  :   -45.3056391 Eh     change       -0.1777806E-04 Eh
 * total energy  :   -45.3056590 Eh     change       -0.1983980E-04 Eh
 * total energy  :   -45.3056779 Eh     change       -0.1895695E-04 Eh
 * total energy  :   -45.3056951 Eh     change       -0.1720770E-04 Eh
 * total energy  :   -45.3057084 Eh     change       -0.1327534E-04 Eh
 * total energy  :   -45.3057191 Eh     change       -0.1064692E-04 Eh
 * total energy  :   -45.3057262 Eh     change       -0.7117854E-05 Eh
 * total energy  :   -45.3057318 Eh     change       -0.5583342E-05 Eh
 * total energy  :   -45.3057356 Eh     change       -0.3857824E-05 Eh
   *** GEOMETRY OPTIMIZATION CONVERGED AFTER 20 ITERATIONS ***

 final structure:
================
44
 xtb: 6.6.1 (8d0f1dd)
C            2.00120497154637        3.38723111629192        0.49588174302215
C            2.93453976237710        2.25572481494121        0.08149198363279
C            2.19158812869091        0.92722985703805       -0.03220923189575
C            3.11044175998906       -0.21848973525424       -0.45483280481653
C            2.34919382154671       -1.52198306959463       -0.70381954196847
C            1.86882174385197       -2.18261255915702        0.58751296509718
C            0.90482067596454       -3.34909999770351        0.35928380365992
C           -0.38231503657069       -2.98236355067908       -0.38598325452145
C           -1.13090423866374       -1.80502508944040        0.23460762440446
C           -2.42683469391171       -1.49760037813204       -0.51192328299259
C           -3.17304569469990       -0.28792355170954        0.05381489137532
C           -2.42282691488083        1.02899629348702       -0.13984991069943
C           -3.25774446605602        2.23529368599750        0.28328955321923
C           -2.48327602123678        3.53843704358572        0.12414428371045
H            1.55558515988854        3.17769732419289        1.46632662319957
H            2.54280627426082        4.32779702139405        0.56394663634181
H            1.19925983540059        3.50447966801007       -0.23021941632897
H            3.73837151990103        2.15914250240882        0.81501522523012
H            3.39254589256247        2.49719627528263       -0.88054136007184
H            1.73316920070426        0.69975445858135        0.93229017396365
H            1.38793282807169        1.03095145955765       -0.76619447749356
H            3.87227499056186       -0.37865594689163        0.31161204076918
H            3.62440282663571        0.07114573280782       -1.37488126564248
H            2.99466343398152       -2.22269150900919       -1.23898792568271
H            1.49760190445972       -1.30182838923078       -1.34846778471840
H            1.38238353470280       -1.44255562373341        1.22231335783462
H            2.73794915634004       -2.55442594019729        1.13678478476351
H            0.63889842016148       -3.76431269850874        1.33483410104800
H            1.41795023606747       -4.13348352854709       -0.20278814565263
H           -1.03533233140690       -3.85903659657773       -0.39325542761258
H           -0.15081869603804       -2.74858625534194       -1.42712711723661
H           -0.49309560613158       -0.92321016799958        0.20562058347833
H           -1.35687452658497       -2.02667396992986        1.28034021098055
H           -2.19842428100057       -1.31423621947666       -1.56510171854641
H           -3.08205337915866       -2.37128718967940       -0.46603648196248
H           -3.36178078938805       -0.44416524921469        1.11867359975399
H           -4.14332939726764       -0.21324510889721       -0.44416482916305
H           -1.50127406512866        1.02126048321697        0.44469572009513
H           -2.14886572038154        1.13499718526831       -1.19258925723783
H           -4.16747224381192        2.27688478715137       -0.32051168468512
H           -3.55943219287665        2.11737501286645        1.32674424633198
H           -1.58928257628693        3.52903867766078        0.74441557980825
H           -2.17885096154251        3.67612759332334       -0.91147958388714
H           -3.09513324464214        4.38846833184162        0.41712277109557
           -------------------------------------------------
          |                Final Singlepoint                |
           -------------------------------------------------

          :  Hamiltonian                  GFN2-xTB          :
         :: gradient norm              0.000352839581 Eh/a0 ::
         :: HOMO-LUMO gap             12.660037806428 eV    ::
         :: SCC energy               -45.983510097321 Eh    ::
         :: -> dispersion             -0.031798238795 Eh    ::
         :: repulsion energy           0.677178677495 Eh    ::

    * Orbital Energies and Occupations

         #    Occupation            Energy/Eh            Energy/eV
      -------------------------------------------------------------
         1        2.0000           -0.6234444             -16.9648
       ...           ...                  ...                  ...
        31        2.0000           -0.4455652             -12.1244
        32        2.0000           -0.4388936             -11.9429
        33        2.0000           -0.4345997             -11.8261
        34        2.0000           -0.4328738             -11.7791
        35        2.0000           -0.4289121             -11.6713
        36        2.0000           -0.4272322             -11.6256
        37        2.0000           -0.4224798             -11.4963
        38        2.0000           -0.4195909             -11.4177
        39        2.0000           -0.4192306             -11.4078
        40        2.0000           -0.4172832             -11.3549
        41        2.0000           -0.4115821             -11.1997
        42        2.0000           -0.4092711             -11.1368
        43        2.0000           -0.4074179             -11.0864 (HOMO)
        44                          0.0578299               1.5736 (LUMO)
        45                          0.0621882               1.6922
        46                          0.0772547               2.1022
        47                          0.0865242               2.3544
        48                          0.1025910               2.7916
        49                          0.1074198               2.9230
        50                          0.1141534               3.1063
        51                          0.1186609               3.2289
        52                          0.1248813               3.3982
        53                          0.1262674               3.4359
        54                          0.1312601               3.5718
       ...                                ...                  ...
        86                          0.3348410               9.1115
      -------------------------------------------------------------
                  HL-Gap            0.4652478 Eh           12.6600 eV

     #   Z          covCN         q      C6AA      α(0)
     1   6 C        3.752    -0.101    22.487     6.762
     2   6 C        3.801    -0.053    21.526     6.606
     3   6 C        3.803    -0.057    21.591     6.615
     4   6 C        3.802    -0.058    21.625     6.621
     5   6 C        3.801    -0.059    21.635     6.622
     6   6 C        3.801    -0.059    21.628     6.621
     7   6 C        3.800    -0.058    21.609     6.619
     8   6 C        3.801    -0.057    21.596     6.616
     9   6 C        3.802    -0.061    21.663     6.626
    10   6 C        3.802    -0.057    21.604     6.617
    11   6 C        3.802    -0.058    21.618     6.620
    12   6 C        3.803    -0.058    21.625     6.621
    13   6 C        3.801    -0.053    21.524     6.605
    14   6 C        3.752    -0.101    22.498     6.764
    15   1 H        0.925     0.031     2.567     2.505
    16   1 H        0.925     0.032     2.564     2.504
    17   1 H        0.925     0.034     2.527     2.486
    18   1 H        0.924     0.027     2.624     2.533
    19   1 H        0.924     0.027     2.625     2.534
    20   1 H        0.924     0.029     2.606     2.525
    21   1 H        0.924     0.030     2.584     2.514
    22   1 H        0.924     0.028     2.618     2.530
    23   1 H        0.924     0.027     2.629     2.536
    24   1 H        0.924     0.026     2.645     2.544
    25   1 H        0.924     0.037     2.490     2.468
    26   1 H        0.925     0.035     2.516     2.481
    27   1 H        0.924     0.026     2.650     2.546
    28   1 H        0.924     0.027     2.623     2.533
    29   1 H        0.924     0.027     2.628     2.535
    30   1 H        0.924     0.026     2.650     2.545
    31   1 H        0.924     0.028     2.612     2.527
    32   1 H        0.925     0.041     2.437     2.441
    33   1 H        0.924     0.028     2.620     2.531
    34   1 H        0.924     0.028     2.621     2.532
    35   1 H        0.924     0.026     2.645     2.543
    36   1 H        0.924     0.028     2.610     2.526
    37   1 H        0.924     0.027     2.626     2.534
    38   1 H        0.924     0.033     2.545     2.495
    39   1 H        0.924     0.029     2.599     2.521
    40   1 H        0.924     0.027     2.630     2.536
    41   1 H        0.924     0.028     2.620     2.531
    42   1 H        0.925     0.034     2.530     2.487
    43   1 H        0.925     0.032     2.557     2.501
    44   1 H        0.925     0.032     2.563     2.504

Wiberg/Mayer (AO) data.
largest (>0.10) Wiberg bond orders for each atom

     #   Z sym  total        # sym  WBO       # sym  WBO       # sym  WBO
 ---------------------------------------------------------------------------
     1   6 C    3.997 --     2 C    1.019    15 H    0.988    16 H    0.988
                            17 H    0.988
     2   6 C    3.998 --     1 C    1.019     3 C    1.008    18 H    0.979
                            19 H    0.979
     3   6 C    3.998 --     4 C    1.008     2 C    1.008    21 H    0.976
                            20 H    0.974
     4   6 C    3.998 --     3 C    1.008     5 C    1.006    22 H    0.978
                            23 H    0.978
     5   6 C    3.997 --     6 C    1.009     4 C    1.006    24 H    0.979
                            25 H    0.972
     6   6 C    3.997 --     5 C    1.009     7 C    1.007    27 H    0.978
                            26 H    0.971
     7   6 C    3.997 --     6 C    1.007     8 C    1.006    28 H    0.978
                            29 H    0.978
     8   6 C    3.997 --     9 C    1.008     7 C    1.006    30 H    0.977
                            31 H    0.975
     9   6 C    3.997 --     8 C    1.008    10 C    1.008    33 H    0.978
                            32 H    0.970
    10   6 C    3.997 --     9 C    1.008    11 C    1.006    35 H    0.978
                            34 H    0.977
    11   6 C    3.997 --    12 C    1.008    10 C    1.006    36 H    0.978
                            37 H    0.977
    12   6 C    3.997 --    11 C    1.008    13 C    1.008    39 H    0.977
                            38 H    0.975
    13   6 C    3.998 --    14 C    1.019    12 C    1.008    41 H    0.979
                            40 H    0.979
    14   6 C    3.997 --    13 C    1.019    43 H    0.988    44 H    0.988
                            42 H    0.988
    15   1 H    0.999 --     1 C    0.988
    16   1 H    0.999 --     1 C    0.988
    17   1 H    0.999 --     1 C    0.988
    18   1 H    0.999 --     2 C    0.979
    19   1 H    0.999 --     2 C    0.979
    20   1 H    0.999 --     3 C    0.974
    21   1 H    0.999 --     3 C    0.976
    22   1 H    0.999 --     4 C    0.978
    23   1 H    0.999 --     4 C    0.978
    24   1 H    0.999 --     5 C    0.979
    25   1 H    0.999 --     5 C    0.972
    26   1 H    0.999 --     6 C    0.971
    27   1 H    0.999 --     6 C    0.978
    28   1 H    0.999 --     7 C    0.978
    29   1 H    0.999 --     7 C    0.978
    30   1 H    0.999 --     8 C    0.977
    31   1 H    0.999 --     8 C    0.975
    32   1 H    0.998 --     9 C    0.970
    33   1 H    0.999 --     9 C    0.978
    34   1 H    0.999 --    10 C    0.977
    35   1 H    0.999 --    10 C    0.978
    36   1 H    0.999 --    11 C    0.978
    37   1 H    0.999 --    11 C    0.977
    38   1 H    0.999 --    12 C    0.975
    39   1 H    0.999 --    12 C    0.977
    40   1 H    0.999 --    13 C    0.979
    41   1 H    0.999 --    13 C    0.979
    42   1 H    0.999 --    14 C    0.988
    43   1 H    0.999 --    14 C    0.988
    44   1 H    0.999 --    14 C    0.988
 ---------------------------------------------------------------------------

molecular dipole:
                 x           y           z       tot (Debye)
 q only:        0.007       0.037       0.001
   full:        0.005       0.030       0.002       0.078

 projected vibrational frequencies (cm⁻¹)
eigval :       -0.00    -0.00    -0.00     0.00     0.00     0.00
eigval :       17.36    23.45    33.47    52.61    60.99    64.16
eigval :       89.50   105.57   109.61   127.80   172.74   192.86
eigval :      204.40   225.98   232.96   237.93   255.18   277.58
eigval :      298.27   343.31   405.25   405.75   456.59   494.73
eigval :      536.87   750.47   767.87   773.87   785.04   818.49
eigval :      822.79   831.93   884.89   905.29   928.90   938.68
eigval :      941.80   954.90   985.82   994.59  1011.36  1023.97
eigval :     1055.74  1076.70  1080.62  1094.56  1103.15  1111.16
eigval :     1119.14  1119.76  1129.24  1147.08  1150.66  1157.93
eigval :     1186.33  1188.00  1221.91  1226.04  1248.72  1266.19
eigval :     1268.71  1273.90  1278.63  1283.75  1287.04  1290.03
eigval :     1291.52  1296.53  1303.39  1320.35  1346.25  1347.98
eigval :     1354.08  1359.50  1375.67  1376.74  1380.44  1381.43
eigval :     1415.14  1417.67  1485.24  1490.72  1492.20  1493.07
eigval :     1494.54  1496.43  1498.01  1500.18  1500.69  1503.74
eigval :     1504.55  1505.40  1507.65  1508.52  1510.72  1511.82
eigval :     2953.21  2953.96  2954.48  2954.96  2957.43  2959.54
eigval :     2959.92  2961.69  2967.09  2969.24  2969.82  2971.12
eigval :     2973.93  2975.77  2976.82  2977.76  2978.72  2981.67
eigval :     2985.58  2986.57  2989.31  2999.92  3009.14  3020.94
eigval :     3026.74  3027.53  3030.70  3030.95  3037.16  3037.73

   temp. (K)  partition function   enthalpy   heat capacity  entropy
                                   cal/mol     cal/K/mol   cal/K/mol   J/K/mol
 298.15  VIB  0.241E+09             9999.412     57.263     65.005
         ROT  0.394E+07              888.752      2.981     33.162
         INT  0.950E+15            10888.164     60.244     98.167
         TR   0.270E+28             1481.254      4.968     41.741
         TOT                       12369.4179    65.2122   139.9079   585.3745

       T/K    H(0)-H(T)+PV         H(T)/Eh          T*S/Eh         G(T)/Eh
   ------------------------------------------------------------------------
    298.15    0.197119E-01    0.433109E+00    0.664747E-01    0.366634E+00
   ------------------------------------------------------------------------

         :::::::::::::::::::::::::::::::::::::::::::::::::::::
         ::                  THERMODYNAMIC                  ::
         :::::::::::::::::::::::::::::::::::::::::::::::::::::
         :: total free energy         -44.939101761389 Eh   ::
         ::.................................................::
         :: total energy              -45.305735630067 Eh   ::
         :: zero point energy           0.413396687876 Eh   ::
         :: G(RRHO) w/o ZPVE           -0.046762819198 Eh   ::
         :: G(RRHO) contrib.            0.366633868678 Eh   ::
         :::::::::::::::::::::::::::::::::::::::::::::::::::::

           -------------------------------------------------
          | TOTAL ENERGY              -45.305735630067 Eh   |
          | TOTAL ENTHALPY            -44.872627019997 Eh   |
          | TOTAL FREE ENERGY         -44.939101761389 Eh   |
          | GRADIENT NORM               0.000352837079 Eh/α |
          | HOMO-LUMO GAP              12.660038022527 eV   |
           -------------------------------------------------

 * finished run on 2024/04/20 at 10:56:47.386
