   * xtb version 6.6.1 (8d0f1dd) compiled by 'stahn@M-Bot' on 2023-08-01
          program call               : xtb folded.xyz --gfn 2 --ohess -P 4

   ID    Z sym.   atoms
    1    6 C      1-5
    2    1 H      6-17

          :  Hamiltonian                  GFN2-xTB          :
 * total energy  :   -16.8265152 Eh     change       -0.3861800E-11 Eh
 * total energy  :   -16.8274363 Eh     change       -0.9211192E-03 Eh
 * total energy  :   -16.8275594 Eh     change       -0.1230387E-03 Eh
 * total energy  :   -16.8275760 Eh     change       -0.1663475E-04 Eh
 * total energy  :   -16.8275876 Eh     change       -0.1164732E-04 Eh
 * total energy  :   -16.8275945 Eh     change       -0.6804386E-05 Eh
 * total energy  :   -16.8275984 Eh     change       -0.3938600E-05 Eh
   *** GEOMETRY OPTIMIZATION CONVERGED AFTER 7 ITERATIONS ***

 final structure:
================
17
 xtb: 6.6.1 (8d0f1dd)
C           -1.89327499330269        0.65889149957042       -0.34225184852248
C           -1.11113431967864       -0.18122793202880        0.66043310621875
C            0.00002549881225       -1.01368138927130        0.01830158571439
C            1.11090026575455       -0.20466160678394       -0.65357925607116
C            1.89355668138060        0.67046346069111        0.31827500342204
H           -2.29321982815275        0.03072466202070       -1.13576800907829
H           -1.26250293340738        1.42149120842252       -0.79174193631328
H           -2.72477783179722        1.15750475276805        0.15156545558678
H           -1.80152357792076       -0.86676401582020        1.15878686838468
H           -0.68936623677728        0.46832587895973        1.42912371181944
H           -0.44769791701314       -1.67399024769470       -0.72921932736190
H            0.44789291705813       -1.64646239245873        0.78918269882621
H            0.68875887054220        0.41719108348190       -1.44464566105353
H            1.80103864691312       -0.90749902234411       -1.12758352201862
H            2.72364448885589        1.15274406005107       -0.19380518128576
H            2.29554928534102        0.07053711892803        1.13235346508361
H            1.26251798339211        1.44734788150822        0.74221084664909
           -------------------------------------------------
          |                Final Singlepoint                |
           -------------------------------------------------

          :  Hamiltonian                  GFN2-xTB          :
         :: gradient norm              0.000352307640 Eh/a0 ::
         :: HOMO-LUMO gap             13.978496828359 eV    ::
         :: SCC energy               -17.084852353291 Eh    ::
         :: -> dispersion             -0.008897906567 Eh    ::
         :: repulsion energy           0.257231152765 Eh    ::

    * Orbital Energies and Occupations

         #    Occupation            Energy/Eh            Energy/eV
      -------------------------------------------------------------
         1        2.0000           -0.6196275             -16.8609
       ...           ...                  ...                  ...
         4        2.0000           -0.5664734             -15.4145
         5        2.0000           -0.5407517             -14.7146
         6        2.0000           -0.5120083             -13.9325
         7        2.0000           -0.5090354             -13.8516
         8        2.0000           -0.4814181             -13.1001
         9        2.0000           -0.4809942             -13.0885
        10        2.0000           -0.4770824             -12.9821
        11        2.0000           -0.4525795             -12.3153
        12        2.0000           -0.4435720             -12.0702
        13        2.0000           -0.4425641             -12.0428
        14        2.0000           -0.4216273             -11.4731
        15        2.0000           -0.4191461             -11.4055
        16        2.0000           -0.4160231             -11.3206 (HOMO)
        17                          0.0976772               2.6579 (LUMO)
        18                          0.0994945               2.7074
        19                          0.1237780               3.3682
        20                          0.1373654               3.7379
        21                          0.1394476               3.7946
        22                          0.1484486               4.0395
        23                          0.1503826               4.0921
        24                          0.1923973               5.2354
        25                          0.2053932               5.5890
        26                          0.2090150               5.6876
        27                          0.2242758               6.1029
       ...                                ...                  ...
        32                          0.3056595               8.3174
      -------------------------------------------------------------
                  HL-Gap            0.5137003 Eh           13.9785 eV

     #   Z          covCN         q      C6AA      α(0)
     1   6 C        3.751    -0.101    22.483     6.762
     2   6 C        3.799    -0.052    21.509     6.603
     3   6 C        3.801    -0.057    21.607     6.618
     4   6 C        3.799    -0.052    21.509     6.603
     5   6 C        3.751    -0.101    22.483     6.762
     6   1 H        0.925     0.032     2.559     2.502
     7   1 H        0.925     0.035     2.517     2.481
     8   1 H        0.925     0.029     2.595     2.519
     9   1 H        0.924     0.026     2.650     2.546
    10   1 H        0.924     0.032     2.559     2.502
    11   1 H        0.924     0.027     2.623     2.533
    12   1 H        0.924     0.027     2.623     2.533
    13   1 H        0.924     0.032     2.559     2.501
    14   1 H        0.924     0.026     2.650     2.546
    15   1 H        0.925     0.029     2.595     2.519
    16   1 H        0.925     0.032     2.559     2.502
    17   1 H        0.925     0.035     2.517     2.481

Wiberg/Mayer (AO) data.
largest (>0.10) Wiberg bond orders for each atom

     #   Z sym  total        # sym  WBO       # sym  WBO       # sym  WBO
 ---------------------------------------------------------------------------
     1   6 C    3.997 --     2 C    1.020     6 H    0.988     8 H    0.988
                             7 H    0.986
     2   6 C    3.998 --     1 C    1.020     3 C    1.008     9 H    0.979
                            10 H    0.976
     3   6 C    3.998 --     2 C    1.008     4 C    1.008    11 H    0.978
                            12 H    0.978
     4   6 C    3.998 --     5 C    1.020     3 C    1.008    14 H    0.979
                            13 H    0.976
     5   6 C    3.997 --     4 C    1.020    16 H    0.988    15 H    0.988
                            17 H    0.986
     6   1 H    0.999 --     1 C    0.988
     7   1 H    0.999 --     1 C    0.986
     8   1 H    0.999 --     1 C    0.988
     9   1 H    0.999 --     2 C    0.979
    10   1 H    0.999 --     2 C    0.976
    11   1 H    0.999 --     3 C    0.978
    12   1 H    0.999 --     3 C    0.978
    13   1 H    0.999 --     4 C    0.976
    14   1 H    0.999 --     4 C    0.979
    15   1 H    0.999 --     5 C    0.988
    16   1 H    0.999 --     5 C    0.988
    17   1 H    0.999 --     5 C    0.986
 ---------------------------------------------------------------------------

molecular dipole:
                 x           y           z       tot (Debye)
 q only:       -0.000       0.015      -0.000
   full:       -0.000       0.009      -0.000       0.024

 projected vibrational frequencies (cm⁻¹)
eigval :       -0.00    -0.00    -0.00     0.00     0.00     0.00
eigval :       54.02   136.98   218.30   270.92   277.85   381.86
eigval :      463.39   764.08   815.49   887.32   889.02   955.32
eigval :     1025.79  1043.50  1066.22  1147.51  1148.54  1170.02
eigval :     1237.92  1254.48  1287.14  1344.92  1360.25  1364.52
eigval :     1415.34  1416.53  1487.25  1494.52  1498.04  1504.07
eigval :     1507.61  1514.46  1518.31  2956.63  2960.46  2963.55
eigval :     2976.17  2990.83  2992.78  3027.81  3029.05  3030.80
eigval :     3031.54  3043.86  3044.29

   temp. (K)  partition function   enthalpy   heat capacity  entropy
                                   cal/mol     cal/K/mol   cal/K/mol   J/K/mol
 298.15  VIB   39.0                 2572.356     17.647     15.396
         ROT  0.557E+05              888.752      2.981     24.699
         INT  0.217E+07             3461.109     20.628     40.095
         TR   0.593E+27             1481.254      4.968     38.727
         TOT                        4942.3625    25.5963    78.8220   329.7912

       T/K    H(0)-H(T)+PV         H(T)/Eh          T*S/Eh         G(T)/Eh
   ------------------------------------------------------------------------
    298.15    0.787616E-02    0.167278E+00    0.374509E-01    0.129827E+00
   ------------------------------------------------------------------------

         :::::::::::::::::::::::::::::::::::::::::::::::::::::
         ::                  THERMODYNAMIC                  ::
         :::::::::::::::::::::::::::::::::::::::::::::::::::::
         :: total free energy         -16.697771384990 Eh   ::
         ::.................................................::
         :: total energy              -16.827598391290 Eh   ::
         :: zero point energy           0.159401720792 Eh   ::
         :: G(RRHO) w/o ZPVE           -0.029574714492 Eh   ::
         :: G(RRHO) contrib.            0.129827006300 Eh   ::
         :::::::::::::::::::::::::::::::::::::::::::::::::::::

           -------------------------------------------------
          | TOTAL ENERGY              -16.827598391290 Eh   |
          | TOTAL ENTHALPY            -16.660320514437 Eh   |
          | TOTAL FREE ENERGY         -16.697771384990 Eh   |
          | GRADIENT NORM               0.000352315173 Eh/α |
          | HOMO-LUMO GAP              13.978496981373 eV   |
           -------------------------------------------------

 * finished run on 2024/04/23 at 12:09:58.293
