   * xtb version 6.6.1 (8d0f1dd) compiled by 'stahn@M-Bot' on 2023-08-01
          program call               : xtb folded.xyz --gfn 2 --ohess -P 4

   ID    Z sym.   atoms
    1    6 C      1-13
    2    1 H      14-41

          :  Hamiltonian                  GFN2-xTB          :
 * total energy  :   -42.1378706 Eh     change       -0.2179235E-10 Eh
 * total energy  :   -42.1402783 Eh     change       -0.2407677E-02 Eh
 * total energy  :   -42.1406504 Eh     change       -0.3721706E-03 Eh
 * total energy  :   -42.1406750 Eh     change       -0.2457682E-04 Eh
 * total energy  :   -42.1407097 Eh     change       -0.3469139E-04 Eh
 * total energy  :   -42.1407240 Eh     change       -0.1433998E-04 Eh
 * total energy  :   -42.1407566 Eh     change       -0.3253769E-04 Eh
 * total energy  :   -42.1407700 Eh     change       -0.1345833E-04 Eh
 * total energy  :   -42.1407893 Eh     change       -0.1925292E-04 Eh
 * total energy  :   -42.1408022 Eh     change       -0.1289150E-04 Eh
 * total energy  :   -42.1408156 Eh     change       -0.8108948E-05 Eh
 * total energy  :   -42.1408220 Eh     change       -0.6417007E-05 Eh
 * total energy  :   -42.1408325 Eh     change       -0.1054711E-04 Eh
 * total energy  :   -42.1408408 Eh     change       -0.8249713E-05 Eh
 * total energy  :   -42.1408478 Eh     change       -0.7029563E-05 Eh
 * total energy  :   -42.1408542 Eh     change       -0.6392988E-05 Eh
 * total energy  :   -42.1408609 Eh     change       -0.6695486E-05 Eh
 * total energy  :   -42.1408667 Eh     change       -0.5851710E-05 Eh
 * total energy  :   -42.1408709 Eh     change       -0.4147109E-05 Eh
   *** GEOMETRY OPTIMIZATION CONVERGED AFTER 20 ITERATIONS ***

 final structure:
================
41
 xtb: 6.6.1 (8d0f1dd)
C            5.31574787727144       -1.33136001253902        1.49434401164877
C            3.84708071704539       -1.24253819846716        1.09859167623115
C            3.51262131628785        0.09695567092002        0.44656725564088
C            2.03565277964128        0.20099222352372        0.07432234076681
C            1.69830794374743        1.55092241850219       -0.55631187488283
C            0.20491571505873        1.72666731442186       -0.83641198033064
C           -0.29295313106611        0.85703431833866       -1.98885673949763
C           -1.77861866496186        1.05223601695403       -2.29971399275879
C           -2.72712600939751        0.66879868440736       -1.16188936891854
C           -2.63272148922763       -0.80477584031787       -0.77280184071725
C           -3.67042160979037       -1.22030770053764        0.27114808900558
C           -3.51189907276426       -0.54453025934389        1.63475558765491
C           -2.18027122103072       -0.85284666843281        2.30991332310489
H            5.53151240659928       -2.29221373913610        1.95600526731969
H            5.56723894893614       -0.54566395355930        2.20361695999225
H            5.95394619281518       -1.21915175191234        0.62044518354722
H            3.60866707209788       -2.05163755131920        0.40418999705289
H            3.22422657333926       -1.37558283020833        1.98642127301726
H            4.12173990191239        0.22356721963394       -0.45171433794480
H            3.76942478953147        0.90571192742830        1.13528620632361
H            1.43039190371667        0.06372125982317        0.97433773034583
H            1.78803187414597       -0.60538689488454       -0.61839685206387
H            2.25953028756441        1.66794086928842       -1.48641154499942
H            2.02237487839634        2.34209026172108        0.12489811422564
H            0.01041736030972        2.77429817595385       -1.08034423589018
H           -0.34860857617423        1.49150791397073        0.07408208428590
H           -0.10684934605778       -0.19378186133390       -1.76777026368663
H            0.27986246128010        1.10702574367119       -2.88591270374351
H           -1.95014690651334        2.10113819823062       -2.55607351011620
H           -2.02763624618437        0.45391407275589       -3.18023013044701
H           -3.75054985455013        0.88230627457951       -1.48240335946030
H           -2.52115862739031        1.29612054696331       -0.29474967226193
H           -2.78345017683401       -1.41318583703673       -1.66869509498362
H           -1.63610187979369       -1.02542614606190       -0.39178691521193
H           -3.60638854878469       -2.30272833192101        0.41099288786376
H           -4.66908354346178       -0.99725418806615       -0.11356911466113
H           -4.32239705673679       -0.89129506663525        2.28098716342124
H           -3.62391570083808        0.53567335926635        1.52727841305020
H           -1.35031485061667       -0.42276288389515        1.75519475131550
H           -2.16300518634910       -0.43921225945390        3.31599257649902
H           -2.02762530117387       -1.92803849529235        2.37842964026342
           -------------------------------------------------
          |                Final Singlepoint                |
           -------------------------------------------------

          :  Hamiltonian                  GFN2-xTB          :
         :: gradient norm              0.000290271155 Eh/a0 ::
         :: HOMO-LUMO gap             12.592075548253 eV    ::
         :: SCC energy               -42.771739214526 Eh    ::
         :: -> dispersion             -0.028957327358 Eh    ::
         :: repulsion energy           0.630523278144 Eh    ::

    * Orbital Energies and Occupations

         #    Occupation            Energy/Eh            Energy/eV
      -------------------------------------------------------------
         1        2.0000           -0.6233636             -16.9626
       ...           ...                  ...                  ...
        28        2.0000           -0.4502616             -12.2522
        29        2.0000           -0.4463652             -12.1462
        30        2.0000           -0.4377576             -11.9120
        31        2.0000           -0.4341636             -11.8142
        32        2.0000           -0.4328152             -11.7775
        33        2.0000           -0.4293919             -11.6843
        34        2.0000           -0.4231866             -11.5155
        35        2.0000           -0.4201414             -11.4326
        36        2.0000           -0.4184127             -11.3856
        37        2.0000           -0.4166214             -11.3368
        38        2.0000           -0.4147630             -11.2863
        39        2.0000           -0.4080186             -11.1028
        40        2.0000           -0.4076140             -11.0917 (HOMO)
        41                          0.0551362               1.5003 (LUMO)
        42                          0.0751893               2.0460
        43                          0.0824813               2.2444
        44                          0.0947045               2.5770
        45                          0.1021773               2.7804
        46                          0.1074070               2.9227
        47                          0.1141655               3.1066
        48                          0.1222940               3.3278
        49                          0.1246610               3.3922
        50                          0.1337933               3.6407
        51                          0.1378467               3.7510
       ...                                ...                  ...
        80                          0.3320405               9.0353
      -------------------------------------------------------------
                  HL-Gap            0.4627503 Eh           12.5921 eV

     #   Z          covCN         q      C6AA      α(0)
     1   6 C        3.752    -0.102    22.509     6.766
     2   6 C        3.801    -0.053    21.518     6.604
     3   6 C        3.803    -0.059    21.635     6.622
     4   6 C        3.802    -0.057    21.595     6.616
     5   6 C        3.802    -0.058    21.618     6.620
     6   6 C        3.801    -0.057    21.602     6.617
     7   6 C        3.801    -0.058    21.618     6.620
     8   6 C        3.801    -0.058    21.611     6.619
     9   6 C        3.801    -0.058    21.609     6.618
    10   6 C        3.801    -0.058    21.618     6.620
    11   6 C        3.801    -0.057    21.607     6.618
    12   6 C        3.799    -0.052    21.508     6.603
    13   6 C        3.751    -0.099    22.458     6.758
    14   1 H        0.925     0.032     2.553     2.499
    15   1 H        0.925     0.033     2.544     2.494
    16   1 H        0.925     0.033     2.544     2.494
    17   1 H        0.924     0.028     2.614     2.529
    18   1 H        0.924     0.029     2.608     2.525
    19   1 H        0.924     0.029     2.603     2.523
    20   1 H        0.924     0.029     2.603     2.523
    21   1 H        0.924     0.027     2.626     2.534
    22   1 H        0.924     0.029     2.597     2.520
    23   1 H        0.924     0.028     2.611     2.527
    24   1 H        0.924     0.028     2.621     2.532
    25   1 H        0.924     0.027     2.630     2.536
    26   1 H        0.924     0.033     2.544     2.494
    27   1 H        0.925     0.033     2.538     2.491
    28   1 H        0.924     0.026     2.640     2.541
    29   1 H        0.924     0.027     2.636     2.539
    30   1 H        0.924     0.027     2.632     2.537
    31   1 H        0.924     0.026     2.649     2.545
    32   1 H        0.925     0.034     2.532     2.488
    33   1 H        0.924     0.026     2.651     2.546
    34   1 H        0.925     0.038     2.477     2.461
    35   1 H        0.924     0.028     2.617     2.530
    36   1 H        0.924     0.026     2.649     2.545
    37   1 H        0.924     0.025     2.652     2.547
    38   1 H        0.924     0.030     2.589     2.516
    39   1 H        0.925     0.035     2.519     2.482
    40   1 H        0.925     0.029     2.602     2.522
    41   1 H        0.925     0.032     2.557     2.500

Wiberg/Mayer (AO) data.
largest (>0.10) Wiberg bond orders for each atom

     #   Z sym  total        # sym  WBO       # sym  WBO       # sym  WBO
 ---------------------------------------------------------------------------
     1   6 C    3.997 --     2 C    1.019    16 H    0.988    15 H    0.988
                            14 H    0.988
     2   6 C    3.998 --     1 C    1.019     3 C    1.008    17 H    0.979
                            18 H    0.979
     3   6 C    3.997 --     2 C    1.008     4 C    1.007    19 H    0.978
                            20 H    0.977
     4   6 C    3.998 --     5 C    1.008     3 C    1.007    21 H    0.977
                            22 H    0.975
     5   6 C    3.997 --     4 C    1.008     6 C    1.006    23 H    0.977
                            24 H    0.977
     6   6 C    3.997 --     7 C    1.009     5 C    1.006    25 H    0.978
                            26 H    0.973
     7   6 C    3.998 --     6 C    1.009     8 C    1.007    28 H    0.977
                            27 H    0.972
     8   6 C    3.997 --     9 C    1.007     7 C    1.007    29 H    0.978
                            30 H    0.978
     9   6 C    3.998 --    10 C    1.009     8 C    1.007    31 H    0.977
                            32 H    0.972
    10   6 C    3.997 --     9 C    1.009    11 C    1.007    33 H    0.977
                            34 H    0.972
    11   6 C    3.998 --    12 C    1.008    10 C    1.007    35 H    0.978
                            36 H    0.978
    12   6 C    3.998 --    13 C    1.020    11 C    1.008    37 H    0.979
                            38 H    0.976
    13   6 C    3.997 --    12 C    1.020    41 H    0.988    40 H    0.988
                            39 H    0.985
    14   1 H    0.999 --     1 C    0.988
    15   1 H    0.999 --     1 C    0.988
    16   1 H    0.999 --     1 C    0.988
    17   1 H    0.999 --     2 C    0.979
    18   1 H    0.999 --     2 C    0.979
    19   1 H    0.999 --     3 C    0.978
    20   1 H    0.999 --     3 C    0.977
    21   1 H    0.999 --     4 C    0.977
    22   1 H    0.999 --     4 C    0.975
    23   1 H    0.999 --     5 C    0.977
    24   1 H    0.999 --     5 C    0.977
    25   1 H    0.999 --     6 C    0.978
    26   1 H    0.999 --     6 C    0.973
    27   1 H    0.999 --     7 C    0.972
    28   1 H    0.999 --     7 C    0.977
    29   1 H    0.999 --     8 C    0.978
    30   1 H    0.999 --     8 C    0.978
    31   1 H    0.999 --     9 C    0.977
    32   1 H    0.999 --     9 C    0.972
    33   1 H    0.999 --    10 C    0.977
    34   1 H    0.999 --    10 C    0.972
    35   1 H    0.999 --    11 C    0.978
    36   1 H    0.999 --    11 C    0.978
    37   1 H    0.999 --    12 C    0.979
    38   1 H    0.999 --    12 C    0.976
    39   1 H    0.999 --    13 C    0.985
    40   1 H    0.999 --    13 C    0.988
    41   1 H    0.999 --    13 C    0.988
 ---------------------------------------------------------------------------

molecular dipole:
                 x           y           z       tot (Debye)
 q only:        0.019      -0.008       0.016
   full:        0.018      -0.007       0.010       0.055

 projected vibrational frequencies (cm⁻¹)
eigval :       -0.00    -0.00    -0.00    -0.00     0.00     0.00
eigval :       10.01    22.47    30.18    39.82    51.60    68.27
eigval :      108.31   119.00   149.09   156.58   193.43   217.78
eigval :      233.02   237.53   263.42   271.52   303.52   335.11
eigval :      364.02   413.56   447.90   504.02   538.25   747.71
eigval :      767.70   776.59   793.92   819.15   842.27   859.76
eigval :      874.12   902.33   927.06   941.95   964.88   970.25
eigval :     1003.65  1014.25  1041.20  1048.22  1074.83  1082.86
eigval :     1088.81  1104.62  1115.21  1123.03  1140.65  1146.18
eigval :     1152.64  1159.14  1172.43  1190.64  1215.55  1235.62
eigval :     1253.31  1258.63  1266.06  1279.12  1286.17  1287.67
eigval :     1291.02  1294.14  1308.86  1321.59  1326.14  1352.77
eigval :     1359.01  1364.21  1367.93  1375.27  1375.80  1380.00
eigval :     1414.88  1416.45  1487.12  1489.95  1490.53  1493.36
eigval :     1494.05  1497.24  1499.11  1500.52  1501.22  1501.29
eigval :     1504.90  1505.72  1507.48  1508.05  1517.79  2952.37
eigval :     2953.93  2954.51  2955.61  2956.94  2958.27  2960.31
eigval :     2962.77  2962.85  2964.89  2971.70  2973.01  2973.76
eigval :     2975.79  2978.45  2980.47  2987.85  2989.32  2991.39
eigval :     3003.87  3005.87  3011.87  3029.44  3030.02  3031.76
eigval :     3032.08  3037.66  3042.97

   temp. (K)  partition function   enthalpy   heat capacity  entropy
                                   cal/mol     cal/K/mol   cal/K/mol   J/K/mol
 298.15  VIB  0.131E+09             9155.207     52.033     59.538
         ROT  0.350E+07              888.752      2.981     32.923
         INT  0.459E+15            10043.960     55.014     92.461
         TR   0.242E+28             1481.254      4.968     41.523
         TOT                       11525.2137    59.9817   133.9840   560.5892

       T/K    H(0)-H(T)+PV         H(T)/Eh          T*S/Eh         G(T)/Eh
   ------------------------------------------------------------------------
    298.15    0.183666E-01    0.403565E+00    0.636601E-01    0.339905E+00
   ------------------------------------------------------------------------

         :::::::::::::::::::::::::::::::::::::::::::::::::::::
         ::                  THERMODYNAMIC                  ::
         :::::::::::::::::::::::::::::::::::::::::::::::::::::
         :: total free energy         -41.800965614293 Eh   ::
         ::.................................................::
         :: total energy              -42.140870895758 Eh   ::
         :: zero point energy           0.385198819217 Eh   ::
         :: G(RRHO) w/o ZPVE           -0.045293537752 Eh   ::
         :: G(RRHO) contrib.            0.339905281465 Eh   ::
         :::::::::::::::::::::::::::::::::::::::::::::::::::::

           -------------------------------------------------
          | TOTAL ENERGY              -42.140870895758 Eh   |
          | TOTAL ENTHALPY            -41.737305479502 Eh   |
          | TOTAL FREE ENERGY         -41.800965614293 Eh   |
          | GRADIENT NORM               0.000290268640 Eh/α |
          | HOMO-LUMO GAP              12.592075426316 eV   |
           -------------------------------------------------

 * finished run on 2024/04/20 at 10:57:21.713
